LAMMPS data file Created by LigParGen - (Written by Leela S. Dodda)

      33 atoms
      32 bonds
      59 angles
      71 dihedrals
      19 impropers
 
      33 atom types
      32 bond types
      59 angle types
      71 dihedral types
      19 improper types
 
   -9.389690    40.610310 xlo xhi
   -6.932250    43.067750 ylo yhi
   -0.536830    49.463170 zlo zhi

Masses

       1      1.008  
       2     12.011  
       3     12.011  
       4      1.008  
       5      1.008  
       6     12.011  
       7     12.011  
       8      1.008  
       9      1.008  
      10      1.008  
      11      1.008  
      12     15.999  
      13     15.999  
      14     12.011  
      15     12.011  
      16      1.008  
      17      1.008  
      18     12.011  
      19      1.008  
      20      1.008  
      21     32.060  
      22      1.008  
      23      1.008  
      24     14.007  
      25     15.999  
      26     15.999  
      27     32.060  
      28     12.011  
      29     15.999  
      30     15.999  
      31     18.998  
      32     18.998  
      33     18.998  

Pair Coeffs 

       1      0.030  2.5000000 
       2      0.066  3.5000000 
       3      0.066  3.5000000 
       4      0.030  2.5000000 
       5      0.030  2.5000000 
       6      0.066  3.5000000 
       7      0.070  3.5500000 
       8      0.030  2.5000000 
       9      0.030  2.5000000 
      10      0.030  2.5000000 
      11      0.030  2.5000000 
      12      0.140  2.9000000 
      13      0.210  2.9600000 
      14      0.066  3.5000000 
      15      0.066  3.5000000 
      16      0.030  2.5000000 
      17      0.030  2.5000000 
      18      0.066  3.5000000 
      19      0.030  2.5000000 
      20      0.030  2.5000000 
      21      0.250  3.5500000 
      22      0.030  2.5000000 
      23      0.030  2.5000000 
      24      0.170  3.2500000 
      25      0.170  2.9600000 
      26      0.170  2.9600000 
      27      0.250  3.5500000 
      28      0.066  3.5000000 
      29      0.170  2.9600000 
      30      0.170  2.9600000 
      31      0.060  2.9000000 
      32      0.060  2.9000000 
      33      0.060  2.9000000 

Bond Coeffs 

       1   340.0000     1.0900 
       2   268.0000     1.5290 
       3   340.0000     1.0900 
       4   340.0000     1.0900 
       5   268.0000     1.5290 
       6   317.0000     1.5220 
       7   340.0000     1.0900 
       8   340.0000     1.0900 
       9   340.0000     1.0900 
      10   340.0000     1.0900 
      11   214.0000     1.3270 
      12   570.0000     1.2290 
      13   320.0000     1.4100 
      14   268.0000     1.5290 
      15   340.0000     1.0900 
      16   340.0000     1.0900 
      17   268.0000     1.5290 
      18   340.0000     1.0900 
      19   340.0000     1.0900 
      20   340.0000     1.7700 
      21   340.0000     1.0900 
      22   340.0000     1.0900 
      23   250.0000     1.7300 
      24   700.0000     1.4400 
      25   700.0000     1.4400 
      26   250.0000     1.7300 
      27   340.0000     1.7700 
      28   700.0000     1.4400 
      29   700.0000     1.4400 
      30   367.0000     1.3600 
      31   367.0000     1.3600 
      32   367.0000     1.3600 

Angle Coeffs 

       1     37.500    110.700
       2     33.000    107.800
       3     33.000    107.800
       4     58.350    112.700
       5     63.000    111.100
       6     37.500    110.700
       7     37.500    110.700
       8     37.500    110.700
       9     37.500    110.700
      10     81.000    111.400
      11     80.000    120.400
      12     83.000    116.900
      13     50.000    109.500
      14     35.000    109.500
      15     35.000    109.500
      16     58.350    112.700
      17     37.500    110.700
      18     37.500    110.700
      19     50.000    108.600
      20     37.500    110.700
      21     37.500    110.700
      22     78.670    104.360
      23     74.000    108.900
      24     74.000    108.900
      25     60.260    116.570
      26     78.670    104.360
      27     78.670    104.360
      28     78.670    104.360
      29     50.000    109.500
      30     50.000    109.500
      31     50.000    109.500
      32     78.670    104.360
      33     33.000    107.800
      34     37.500    110.700
      35     77.000    109.100
      36     37.500    110.700
      37     74.000    108.900
      38     37.500    110.700
      39     74.000    108.900
      40     37.500    110.700
      41     35.000    109.500
      42     77.000    109.100
      43     77.000    109.100
      44     35.000    109.500
      45     33.000    107.800
      46    104.000    119.000
      47     78.670    104.360
      48     37.500    110.700
      49     37.500    110.700
      50     33.000    107.800
      51     33.000    107.800
      52     35.000    109.500
      53     33.000    107.800
      54     33.000    107.800
      55     63.000    111.100
      56     37.500    110.700
      57     33.000    107.800
      58     83.000    123.400
      59    104.000    119.000

Dihedral Coeffs  

       1      0.000      0.000      0.300      0.000 
       2      0.000      0.000      0.300      0.000 
       3      0.000      0.000     -0.553      0.000 
       4      4.669      5.124      0.000      0.000 
       5     -1.220     -0.126      0.422      0.000 
       6      1.711     -0.500      0.663      0.000 
       7      1.262     -0.198      0.465      0.000 
       8      0.000      0.000      0.000      0.000 
       9      1.671     -4.901      0.669      0.000 
      10      1.671     -4.901      0.669      0.000 
      11      0.000      0.000      0.000      0.000 
      12      0.000      0.000      0.350      0.000 
      13      0.000      0.000      0.300      0.000 
      14      0.000      0.000     -0.100      0.000 
      15      0.000      0.000      0.300      0.000 
      16      0.000      0.000      0.000      0.000 
      17      0.000      0.000      0.000      0.000 
      18      0.000      0.000      0.452      0.000 
      19      0.000      0.000      0.000      0.000 
      20      0.000      0.000      0.000      0.000 
      21      0.000      0.000      0.300      0.000 
      22      0.000      0.000      0.350      0.000 
      23      0.000      0.000      0.300      0.000 
      24      0.000      0.000      0.300      0.000 
      25      0.000      5.124      0.000      0.000 
      26      0.000      0.000      0.198      0.000 
      27      0.000      0.000      0.300      0.000 
      28      0.000      0.000      0.300      0.000 
      29      0.000      0.000     -0.100      0.000 
      30      0.000      0.000      0.000      0.000 
      31      0.000      0.000     -0.100      0.000 
      32      0.000      0.000      0.000      0.000 
      33      0.000      0.000      0.000      0.000 
      34      0.000      0.000      0.000      0.000 
      35      0.000      0.000      0.300      0.000 
      36      0.000      0.000      0.468      0.000 
      37      0.000      0.000      0.000      0.000 
      38      0.000      0.000      0.198      0.000 
      39      0.000      0.000      0.300      0.000 
      40      0.000      0.000      0.000      0.000 
      41      0.000      0.000      0.000      0.000 
      42      0.000      0.000      0.000      0.000 
      43      0.000      0.000      0.350      0.000 
      44      0.000      0.000      0.300      0.000 
      45      0.000      0.000      0.300      0.000 
      46      0.000      0.000      0.350      0.000 
      47      0.000      0.000      0.000      0.000 
      48      0.000      0.000      0.000      0.000 
      49      0.000      0.000      0.132      0.000 
      50      0.000      0.000      0.300      0.000 
      51      0.000      0.000      0.000      0.000 
      52      0.000      0.000      0.300      0.000 
      53      0.000      0.000      0.300      0.000 
      54      0.000      0.000     -0.100      0.000 
      55      0.000      0.000      0.000      0.000 
      56      0.000      0.000      0.000      0.000 
      57      0.000      0.000      0.300      0.000 
      58      0.000      0.000     -0.100      0.000 
      59      0.000      0.000      0.000      0.000 
      60      0.000      0.000      0.468      0.000 
      61      0.000      0.000     -0.553      0.000 
      62      0.000      0.000      0.300      0.000 
      63      0.000      0.000     -0.100      0.000 
      64      0.000      0.000      0.300      0.000 
      65      0.000      0.000      0.300      0.000 
      66      0.000      0.000      0.300      0.000 
      67      0.000      0.000      0.000      0.000 
      68      0.000      0.000      0.300      0.000 
      69      0.000      0.000      0.300      0.000 
      70      0.000      0.000      0.300      0.000 
      71      0.000      0.000      0.452      0.000 

Improper Coeffs 

       1      0.000      -1       2 
       2      0.000      -1       2 
       3      0.000      -1       2 
       4      0.000      -1       2 
       5      0.000      -1       2 
       6      0.000      -1       2 
       7     10.500      -1       2 
       8      0.000      -1       2 
       9      0.000      -1       2 
      10      0.000      -1       2 
      11      0.000      -1       2 
      12      0.000      -1       2 
      13      0.000      -1       2 
      14      0.000      -1       2 
      15      0.000      -1       2 
      16      0.000      -1       2 
      17      0.000      -1       2 
      18      0.000      -1       2 
      19      0.000      -1       2 

Atoms 

     1      1      1 0.09120000    1.000  1.00000  0.00000
     2      1      2 -0.18140000   -0.140  1.00000  0.00000
     3      1      3 -0.12460000   -0.651  1.00000  1.45191
     4      1      4 0.09120000   -0.519  0.06839 -0.53682
     5      1      5 0.09120000   -0.519  1.93162 -0.53683
     6      1      6 -0.18880000   -0.123  2.04331  2.45332
     7      1      7 0.36170000   -1.645 -0.08103  1.91526
     8      1      8 0.09980000   -1.513  1.68944  1.16467
     9      1      9 0.08650000   -0.854  2.91521  2.51386
    10      1     10 0.08650000    0.894  2.42317  2.10330
    11      1     11 0.08650000   -0.018  1.56236  3.48155
    12      1     12 -0.30770000   -2.101 -0.11688  3.35410
    13      1     13 -0.46220000   -2.160 -1.10350  0.93057
    14      1     14 -0.03480000   -2.919 -1.36453  3.58386
    15      1     15 -0.14940000   -3.278 -1.47529  5.07786
    16      1     16 0.14220000   -2.313 -2.27778  3.26993
    17      1     17 0.14220000   -3.876 -1.30913  2.96645
    18      1     18 -0.28180000   -4.058 -2.77580  5.35229
    19      1     19 0.10580000   -3.919 -0.58138  5.37724
    20      1     20 0.10580000   -2.321 -1.48064  5.69778
    21      1     21 0.95120000   -5.637 -2.77981  4.46598
    22      1     22 0.13570000   -4.255 -2.86500  6.47161
    23      1     23 0.13570000   -3.440 -3.66878  5.00497
    24      1     24 -1.03270000   -6.501 -4.29879  4.81049
    25      1     25 -0.45400000   -6.602 -1.38031  4.99270
    26      1     26 -0.45400000   -5.357 -2.67411  2.71144
    27      1     27 0.98130000   -8.002 -4.29307  5.76886
    28      1     28 0.14440000   -7.935 -5.62699  6.99061
    29      1     29 -0.40040000   -8.199 -2.73691  6.60936
    30      1     30 -0.40040000   -9.390 -4.56678  4.68695
    31      1     31 -0.12230000   -6.773 -5.41377  7.89907
    32      1     32 -0.12230000   -7.782 -6.93225  6.28837
    33      1     33 -0.12230000   -9.194 -5.63390  7.78653

Bonds 

     1      1      2      1
     2      2      3      2
     3      3      4      2
     4      4      5      2
     5      5      6      3
     6      6      7      3
     7      7      8      3
     8      8      9      6
     9      9     10      6
    10     10     11      6
    11     11     12      7
    12     12     13      7
    13     13     14     12
    14     14     15     14
    15     15     16     14
    16     16     17     14
    17     17     18     15
    18     18     19     15
    19     19     20     15
    20     20     21     18
    21     21     22     18
    22     22     23     18
    23     23     24     21
    24     24     25     21
    25     25     26     21
    26     26     27     24
    27     27     28     27
    28     28     29     27
    29     29     30     27
    30     30     31     28
    31     31     32     28
    32     32     33     28

Angles 

     1      1      1      2      3
     2      2      1      2      4
     3      3      1      2      5
     4      4      2      3      6
     5      5      2      3      7
     6      6      2      3      8
     7      7      3      6      9
     8      8      3      6     10
     9      9      3      6     11
    10     10      3      7     12
    11     11      3      7     13
    12     12      7     12     14
    13     13     12     14     15
    14     14     12     14     16
    15     15     12     14     17
    16     16     14     15     18
    17     17     14     15     19
    18     18     14     15     20
    19     19     15     18     21
    20     20     15     18     22
    21     21     15     18     23
    22     22     18     21     24
    23     23     18     21     25
    24     24     18     21     26
    25     25     21     24     27
    26     26     24     27     28
    27     27     24     27     29
    28     28     24     27     30
    29     29     27     28     31
    30     30     27     28     32
    31     31     27     28     33
    32     32     24     21     26
    33     33     19     15     20
    34     34     18     15     19
    35     35     32     28     33
    36     36     18     15     20
    37     37     28     27     30
    38     38      6      3      8
    39     39     28     27     29
    40     40     15     14     16
    41     41     21     18     23
    42     42     31     28     32
    43     43     31     28     33
    44     44      7      3      8
    45     45     16     14     17
    46     46     25     21     26
    47     47     24     21     25
    48     48      3      2      4
    49     49      3      2      5
    50     50      9      6     10
    51     51     22     18     23
    52     52     21     18     22
    53     53      4      2      5
    54     54      9      6     11
    55     55      6      3      7
    56     56     15     14     17
    57     57     10      6     11
    58     58     12      7     13
    59     59     29     27     30

Dihedrals

     1      1      6      3      2      1 
     2      2      9      6      3      2 
     3      3     12      7      3      2 
     4      4     14     12      7      3 
     5      5     15     14     12      7 
     6      6     18     15     14     12 
     7      7     21     18     15     14 
     8      8     24     21     18     15 
     9      9     27     24     21     18 
    10     10     28     27     24     21 
    11     11     31     28     27     24 
    12     12     26     21     18     23 
    13     13     10      6      3      8 
    14     14      7      3      2      5 
    15     15      8      3      2      4 
    16     16     25     21     18     15 
    17     17     24     21     18     23 
    18     18     21     18     15     19 
    19     19     13      7      3      8 
    20     20     32     28     27     30 
    21     21     11      6      3      8 
    22     22     26     21     18     22 
    23     23     10      6      3      2 
    24     24     20     15     14     16 
    25     25     14     12      7     13 
    26     26     16     14     12      7 
    27     27     18     15     14     16 
    28     28      6      3      2      4 
    29     29      9      6      3      7 
    30     30     32     28     27     24 
    31     31      7      3      2      1 
    32     32     33     28     27     24 
    33     33     13      7      3      6 
    34     34     24     21     18     22 
    35     35     23     18     15     20 
    36     36     19     15     14     12 
    37     37     13      7      3      2 
    38     38     17     14     12      7 
    39     39     11      6      3      2 
    40     40     27     24     21     26 
    41     41     31     28     27     30 
    42     42     30     27     24     21 
    43     43     25     21     18     22 
    44     44     22     18     15     14 
    45     45      8      3      2      5 
    46     46     25     21     18     23 
    47     47     27     24     21     25 
    48     48     29     27     24     21 
    49     49     12      7      3      8 
    50     50     20     15     14     17 
    51     51     33     28     27     30 
    52     52     19     15     14     17 
    53     53      9      6      3      8 
    54     54     10      6      3      7 
    55     55     33     28     27     29 
    56     56     26     21     18     15 
    57     57      8      3      2      1 
    58     58     11      6      3      7 
    59     59     31     28     27     29 
    60     60     20     15     14     12 
    61     61     12      7      3      6 
    62     62      6      3      2      5 
    63     63      7      3      2      4 
    64     64     23     18     15     19 
    65     65     22     18     15     20 
    66     66     22     18     15     19 
    67     67     32     28     27     29 
    68     68     19     15     14     16 
    69     69     18     15     14     17 
    70     70     23     18     15     14 
    71     71     21     18     15     20 

Impropers

     1      1      2      1      3      4 
     2      2      2      1      3      5 
     3      3      3      2      6      7 
     4      4      3      2      6      8 
     5      5      6      9     10      3 
     6      6      6      9     11      3 
     7      7      7      3     12     13 
     8      8     14     12     15     16 
     9      9     14     17     12     15 
    10     10     15     18     19     14 
    11     11     15     18     20     14 
    12     12     18     21     22     15 
    13     13     18     21     15     23 
    14     14     21     25     18     24 
    15     15     21     26     24     18 
    16     16     27     28     29     24 
    17     17     27     28     30     24 
    18     18     28     27     31     32 
    19     19     28     33     27     31 
