LAMMPS data file Created by LigParGen - (Written by Leela S. Dodda)

      14 atoms
      13 bonds
      22 angles
      26 dihedrals
       7 impropers
 
      14 atom types
      13 bond types
      22 angle types
      26 dihedral types
       7 improper types
 
   -3.305250    46.694750 xlo xhi
    0.107090    50.107090 ylo yhi
   -1.027250    48.972750 zlo zhi

Masses

       1     12.011  
       2     12.011  
       3     12.011  
       4     12.011  
       5     15.999  
       6     15.999  
       7      1.008  
       8      1.008  
       9      1.008  
      10      1.008  
      11      1.008  
      12      1.008  
      13      1.008  
      14      1.008  

Pair Coeffs 

       1      0.066  3.5000000 
       2      0.066  3.5000000 
       3      0.066  3.5000000 
       4      0.070  3.5500000 
       5      0.210  2.9600000 
       6      0.170  3.1200000 
       7      0.030  2.5000000 
       8      0.030  2.5000000 
       9      0.030  2.5000000 
      10      0.030  2.5000000 
      11      0.030  2.5000000 
      12      0.030  2.5000000 
      13      0.030  2.5000000 
      14      0.000  0.0000000 

Bond Coeffs 

       1   268.0000     1.5290 
       2   268.0000     1.5290 
       3   317.0000     1.5220 
       4   570.0000     1.2290 
       5   450.0000     1.3640 
       6   340.0000     1.0900 
       7   340.0000     1.0900 
       8   340.0000     1.0900 
       9   340.0000     1.0900 
      10   340.0000     1.0900 
      11   340.0000     1.0900 
      12   340.0000     1.0900 
      13   553.0000     0.9450 

Angle Coeffs 

       1     58.350    112.700
       2     63.000    111.100
       3     80.000    120.400
       4     70.000    108.000
       5     37.500    110.700
       6     37.500    110.700
       7     37.500    110.700
       8     37.500    110.700
       9     37.500    110.700
      10     37.500    110.700
      11     37.500    110.700
      12     35.000    113.000
      13     80.000    121.000
      14     33.000    107.800
      15     37.500    110.700
      16     33.000    107.800
      17     33.000    107.800
      18     33.000    107.800
      19     35.000    109.500
      20     33.000    107.800
      21     35.000    109.500
      22     37.500    110.700

Dihedral Coeffs  

       1     -2.060     -0.313      0.315      0.000 
       2      0.000      0.000      0.000      0.000 
       3      0.000      0.000      0.300      0.000 
       4      1.500      5.500      0.000      0.000 
       5      0.000      0.000      0.000      0.000 
       6      0.000      0.000      0.300      0.000 
       7      0.000      0.000      0.300      0.000 
       8      0.000      0.000      0.300      0.000 
       9      1.000      0.546      0.450      0.000 
      10      0.000      0.000      0.300      0.000 
      11      0.000      5.500      0.000      0.000 
      12      0.000      0.000      0.000      0.000 
      13      0.000      0.000      0.000      0.000 
      14      0.000      0.000      0.000      0.000 
      15      0.000      0.000      0.300      0.000 
      16      0.000      0.000      0.300      0.000 
      17      0.000      0.000      0.300      0.000 
      18      0.000      0.000      0.300      0.000 
      19      0.000      0.000      0.300      0.000 
      20      0.000      0.000      0.300      0.000 
      21      0.000      0.000      0.300      0.000 
      22      0.000      0.000      0.300      0.000 
      23      0.000      0.000     -0.100      0.000 
      24      0.000      0.000      0.300      0.000 
      25      0.000      0.000     -0.100      0.000 
      26      0.000      0.000      0.300      0.000 

Improper Coeffs 

       1     10.500      -1       2 
       2      0.000      -1       2 
       3      0.000      -1       2 
       4      0.000      -1       2 
       5      0.000      -1       2 
       6      0.000      -1       2 
       7      0.000      -1       2 

Atoms 

     1      1      1 -0.24230000    1.000  1.00000  0.00000
     2      1      2 -0.16950000   -0.520  1.00000  0.00000
     3      1      3 -0.26020000   -1.081  1.00000  1.42011
     4      1      4 0.50950000   -2.592  0.99823  1.42824
     5      1      5 -0.44470000   -3.305  0.99693  0.43833
     6      1      6 -0.56030000   -3.096  0.99980  2.68472
     7      1      7 0.08470000    1.378  1.00130 -1.02725
     8      1      8 0.08470000    1.392  0.11156  0.50501
     9      1      9 0.08470000    1.392  1.88728  0.50733
    10      1     10 0.11010000   -0.881  0.11958 -0.54490
    11      1     11 0.11010000   -0.881  1.88115 -0.54392
    12      1     12 0.12110000   -0.737  1.89417  1.95201
    13      1     13 0.12110000   -0.735  0.10709  1.95287
    14      1     14 0.45120000   -2.412  1.00181  3.38080

Bonds 

     1      1      2      1
     2      2      3      2
     3      3      4      3
     4      4      5      4
     5      5      6      4
     6      6      7      1
     7      7      8      1
     8      8      9      1
     9      9     10      2
    10     10     11      2
    11     11     12      3
    12     12     13      3
    13     13     14      6

Angles 

     1      1      1      2      3
     2      2      2      3      4
     3      3      3      4      5
     4      4      3      4      6
     5      5      2      1      7
     6      6      2      1      8
     7      7      2      1      9
     8      8      1      2     10
     9      9      1      2     11
    10     10      2      3     12
    11     11      2      3     13
    12     12      4      6     14
    13     13      5      4      6
    14     14      8      1      9
    15     15      3      2     11
    16     16     10      2     11
    17     17      7      1      9
    18     18     12      3     13
    19     19      4      3     12
    20     20      7      1      8
    21     21      4      3     13
    22     22      3      2     10

Dihedrals

     1      1      4      3      2      1 
     2      2      5      4      3      2 
     3      3      7      1      2      3 
     4      4     14      6      4      3 
     5      5     13      3      4      6 
     6      6     13      3      2     10 
     7      7     12      3      2     10 
     8      8      9      1      2      3 
     9      9      6      4      3      2 
    10     10     12      3      2      1 
    11     11     14      6      4      5 
    12     12     12      3      4      6 
    13     13     13      3      4      5 
    14     14     12      3      4      5 
    15     15     13      3      2     11 
    16     16     10      2      1      7 
    17     17      8      1      2      3 
    18     18     10      2      1      9 
    19     19     11      2      1      8 
    20     20     12      3      2     11 
    21     21     11      2      1      7 
    22     22     10      2      1      8 
    23     23     11      2      3      4 
    24     24     13      3      2      1 
    25     25     10      2      3      4 
    26     26     11      2      1      9 

Impropers

     1      1      4      3      5      6 
     2      2      1      2      7      8 
     3      3      1      9      7      2 
     4      4      2      1     10      3 
     5      5      2      1     11      3 
     6      6      3      4      2     12 
     7      7      3      2      4     13 
