LAMMPS data file. CGCMM style. atom_style full generated by VMD/TopoTools v1.8 on Thu Mar 12 16:43:35 EDT 2026
 535 atoms
 561 bonds
 1078 angles
 1633 dihedrals
 0 impropers
 14 atom types
 17 bond types
 34 angle types
 46 dihedral types
 0 improper types
 -43.129840 56.870160  xlo xhi
 -33.477390 66.522610  ylo yhi
 -25.644790 74.355210  zlo zhi

# Pair Coeffs
#
# 1  C1MT
# 2  C1V
# 3  C2MT
# 4  C2V
# 5  FMT
# 6  HMT
# 7  HV
# 8  NMT
# 9  O1MT
# 10  O1V
# 11  O2MT
# 12  O2V
# 13  O3MT
# 14  SMT

# Bond Coeffs
#
# 1  C1MT-C1MT
# 2  C1MT-C1V
# 3  C1MT-C2MT
# 4  C1MT-FMT
# 5  C1MT-HMT
# 6  C1MT-O1MT
# 7  C1MT-O2MT
# 8  C1MT-SMT
# 9  C1V-C1V
# 10  C1V-HV
# 11  C1V-O1V
# 12  C2MT-HMT
# 13  C2MT-O1MT
# 14  C2V-O1V
# 15  C2V-O2V
# 16  NMT-SMT
# 17  O3MT-SMT

# Angle Coeffs
#
# 1  C1MT-C1MT-C1MT
# 2  C1MT-C1MT-C1V
# 3  C1MT-C1MT-C2MT
# 4  C1MT-C1MT-HMT
# 5  C1MT-C1MT-O1MT
# 6  C1MT-C1MT-O2MT
# 7  C1MT-C1MT-SMT
# 8  C1MT-C1V-C1V
# 9  C1MT-C1V-HV
# 10  C1MT-C2MT-HMT
# 11  C1MT-C2MT-O1MT
# 12  C1MT-O1MT-C2MT
# 13  C1MT-SMT-NMT
# 14  C1MT-SMT-O3MT
# 15  C1V-C1MT-HMT
# 16  C1V-C1V-C1V
# 17  C1V-C1V-HV
# 18  C1V-C1V-O1V
# 19  C1V-O1V-C2V
# 20  C2MT-C1MT-HMT
# 21  FMT-C1MT-FMT
# 22  FMT-C1MT-SMT
# 23  HMT-C1MT-HMT
# 24  HMT-C1MT-SMT
# 25  HMT-C2MT-HMT
# 26  HMT-C2MT-O1MT
# 27  HV-C1V-HV
# 28  HV-C1V-O1V
# 29  NMT-SMT-O3MT
# 30  O1MT-C1MT-O2MT
# 31  O1V-C2V-O1V
# 32  O1V-C2V-O2V
# 33  O3MT-SMT-O3MT
# 34  SMT-NMT-SMT

# Dihedral Coeffs
#
# 1  C1MT-C1MT-C1MT-C1MT
# 2  C1MT-C1MT-C1MT-C1V
# 3  C1MT-C1MT-C1MT-HMT
# 4  C1MT-C1MT-C1MT-O1MT
# 5  C1MT-C1MT-C1MT-O2MT
# 6  C1MT-C1MT-C1V-C1V
# 7  C1MT-C1MT-C1V-HV
# 8  C1MT-C1MT-C2MT-HMT
# 9  C1MT-C1MT-C2MT-O1MT
# 10  C1MT-C1MT-O1MT-C2MT
# 11  C1MT-C1MT-SMT-NMT
# 12  C1MT-C1MT-SMT-O3MT
# 13  C1MT-C1V-C1V-C1V
# 14  C1MT-C1V-C1V-HV
# 15  C1MT-C1V-C1V-O1V
# 16  C1MT-C2MT-O1MT-C1MT
# 17  C1V-C1MT-C1MT-C1V
# 18  C1V-C1MT-C1MT-HMT
# 19  C1V-C1MT-C1MT-O1MT
# 20  C1V-C1MT-C1MT-O2MT
# 21  C1V-C1V-C1V-C1V
# 22  C1V-C1V-C1V-HV
# 23  C1V-C1V-C1V-O1V
# 24  C1V-C1V-O1V-C2V
# 25  C2MT-C1MT-C1MT-HMT
# 26  C2MT-C1MT-C1MT-SMT
# 27  FMT-C1MT-SMT-NMT
# 28  FMT-C1MT-SMT-O3MT
# 29  HMT-C1MT-C1MT-HMT
# 30  HMT-C1MT-C1MT-SMT
# 31  HMT-C1MT-C1V-C1V
# 32  HMT-C1MT-C1V-HV
# 33  HMT-C1MT-C2MT-HMT
# 34  HMT-C1MT-C2MT-O1MT
# 35  HMT-C1MT-SMT-NMT
# 36  HMT-C1MT-SMT-O3MT
# 37  HMT-C2MT-O1MT-C1MT
# 38  HV-C1V-C1V-HV
# 39  HV-C1V-C1V-O1V
# 40  HV-C1V-O1V-C2V
# 41  O1V-C1V-C1V-O1V
# 42  O1V-C2V-O1V-C1V
# 43  O2MT-C1MT-O1MT-C2MT
# 44  O2V-C2V-O1V-C1V
# 45  SMT-NMT-SMT-C1MT
# 46  SMT-NMT-SMT-O3MT

 Masses

 1 12.011000 # C1MT
 2 12.011000 # C1V
 3 12.011000 # C2MT
 4 12.011000 # C2V
 5 18.997999 # FMT
 6 1.008000 # HMT
 7 1.008000 # HV
 8 14.007000 # NMT
 9 15.999000 # O1MT
 10 15.999000 # O1V
 11 15.999000 # O2MT
 12 15.999000 # O2V
 13 15.999000 # O3MT
 14 32.060001 # SMT

 Atoms # full

1 1 2 -0.286270 0.825770 0.407192 1.040389 # C1V VTR
2 1 2 -0.166110 -0.626600 0.314183 1.636138 # C1V VTR
3 1 7 0.139820 0.814318 0.170319 -0.052341 # HV VTR
4 1 7 0.139820 1.378990 -0.453018 1.477068 # HV VTR
5 1 2 0.094520 -1.791823 0.828305 0.728013 # C1V VTR
6 1 7 0.069220 -0.835072 -0.765696 1.808380 # HV VTR
7 1 7 0.069220 -0.651514 0.760241 2.652476 # HV VTR
8 1 10 -0.405300 -2.872400 -0.108125 0.698686 # O1V VTR
9 1 2 0.319290 -2.415194 2.140309 1.225603 # C1V VTR
10 1 7 0.038600 -1.434978 0.932277 -0.331281 # HV VTR
11 1 4 0.914620 -4.060012 0.584354 0.997853 # C2V VTR
12 1 10 -0.447780 -3.813633 1.893757 1.427966 # O1V VTR
13 1 7 0.049150 -2.245753 2.932908 0.459115 # HV VTR
14 1 7 0.049150 -1.963481 2.495052 2.179840 # HV VTR
15 1 12 -0.577950 -5.184735 0.124942 0.817734 # O2V VTR
16 2 2 -0.286270 3.185137 1.378475 1.497988 # C1V VEC
17 2 2 -0.166110 1.637418 1.749802 1.292158 # C1V VEC
18 2 7 0.139820 3.589329 1.007113 0.526665 # HV VEC
19 2 7 0.139820 3.176126 0.486477 2.159645 # HV VEC
20 2 2 0.094520 1.369595 2.756646 0.100012 # C1V VEC
21 2 7 0.138440 1.277291 2.194039 2.244972 # HV VEC
22 2 10 -0.405300 0.142222 2.492704 -0.568260 # O1V VEC
23 2 2 0.319290 1.199568 4.230453 0.492061 # C1V VEC
24 2 7 0.038600 2.180571 2.648081 -0.677202 # HV VEC
25 2 4 0.914620 -0.242394 3.705398 -1.132703 # C2V VEC
26 2 10 -0.447780 0.342208 4.798811 -0.508742 # O1V VEC
27 2 7 0.049150 2.158674 4.758474 0.557673 # HV VEC
28 2 7 0.049150 0.698342 4.317988 1.476994 # HV VEC
29 2 12 -0.577950 -1.186358 3.798595 -1.905055 # O2V VEC
30 3 2 -0.286270 5.272778 1.540264 3.049285 # C1V VEC
31 3 2 -0.166110 4.251045 2.379647 2.163118 # C1V VEC
32 3 7 0.139820 5.772310 0.779228 2.401416 # HV VEC
33 3 7 0.139820 4.665454 0.901008 3.728981 # HV VEC
34 3 2 0.094520 5.038291 3.198852 1.091096 # C1V VEC
35 3 7 0.138440 3.709868 3.089981 2.824032 # HV VEC
36 3 10 -0.405300 4.200743 3.496299 0.003204 # O1V VEC
37 3 2 0.319290 5.581032 4.571023 1.535337 # C1V VEC
38 3 7 0.038600 5.897327 2.595403 0.693475 # HV VEC
39 3 4 0.914620 4.619176 4.725173 -0.469655 # C2V VEC
40 3 10 -0.447780 5.363220 5.458938 0.440167 # O1V VEC
41 3 7 0.049150 6.665666 4.508969 1.761824 # HV VEC
42 3 7 0.049150 5.042558 4.957927 2.420923 # HV VEC
43 3 12 -0.577950 4.164896 5.181356 -1.501946 # O2V VEC
44 4 2 -0.286270 6.293656 1.863874 5.411424 # C1V VEC
45 4 2 -0.166110 6.362185 2.347227 3.916515 # C1V VEC
46 4 7 0.139820 6.476329 0.764233 5.395307 # HV VEC
47 4 7 0.139820 5.232590 1.959877 5.718184 # HV VEC
48 4 2 0.094520 7.807318 2.151250 3.345267 # C1V VEC
49 4 7 0.138440 6.121448 3.425911 3.890720 # HV VEC
50 4 10 -0.405300 7.815941 2.294334 1.933324 # O1V VEC
51 4 2 0.319290 8.854592 3.171839 3.837214 # C1V VEC
52 4 7 0.038600 8.154133 1.115505 3.608227 # HV VEC
53 4 4 0.914620 8.983896 2.997193 1.624715 # C2V VEC
54 4 10 -0.447780 9.593727 3.598875 2.709628 # O1V VEC
55 4 7 0.049150 9.553534 2.714305 4.564857 # HV VEC
56 4 7 0.049150 8.375225 4.065387 4.265959 # HV VEC
57 4 12 -0.577950 9.410000 3.099644 0.492089 # O2V VEC
58 5 2 -0.286270 6.373269 3.095034 7.742462 # C1V VEC
59 5 2 -0.166110 7.230683 2.512159 6.537064 # C1V VEC
60 5 7 0.139820 6.526649 2.467192 8.647935 # HV VEC
61 5 7 0.139820 5.284293 2.993669 7.546293 # HV VEC
62 5 2 0.094520 8.270903 1.409150 7.021729 # C1V VEC
63 5 7 0.138440 7.788849 3.367984 6.133111 # HV VEC
64 5 10 -0.405300 9.045686 0.938073 5.932417 # O1V VEC
65 5 2 0.319290 9.320304 1.813508 8.065598 # C1V VEC
66 5 7 0.038600 7.699836 0.546155 7.431440 # HV VEC
67 5 4 0.914620 10.372432 0.898662 6.357290 # C2V VEC
68 5 10 -0.447780 10.591389 1.361901 7.631943 # O1V VEC
69 5 7 0.049150 9.073271 1.388801 9.053801 # HV VEC
70 5 7 0.049150 9.395031 2.879090 8.094183 # HV VEC
71 5 12 -0.577950 11.289923 0.568578 5.635664 # O2V VEC
72 6 1 -0.043520 5.538003 4.946609 9.350163 # C1MT MT2
73 6 1 0.079520 6.565117 4.616241 8.151858 # C1MT MT2
74 6 6 0.010100 4.541826 5.078645 8.879425 # HMT MT2
75 6 6 0.010100 5.389881 4.029804 9.942116 # HMT MT2
76 6 1 -0.118360 7.995867 4.812525 8.626985 # C1MT MT2
77 6 1 0.728660 6.308351 5.542676 6.941308 # C1MT MT2
78 6 6 0.019290 8.282134 4.059145 9.379069 # HMT MT2
79 6 6 0.019290 8.103943 5.779544 9.095778 # HMT MT2
80 6 6 0.019290 8.716165 4.894298 7.787326 # HMT MT2
81 6 9 -0.433160 7.354999 5.887799 6.027169 # O1MT MT2
82 6 11 -0.612450 5.185562 6.014788 6.811759 # O2MT MT2
83 6 3 0.093400 7.048431 6.990081 5.160633 # C2MT MT2
84 6 1 0.018490 8.201711 7.127897 4.167315 # C1MT MT2
85 6 6 0.072500 6.902589 7.935730 5.737607 # HMT MT2
86 6 6 0.072500 6.075258 6.807610 4.640790 # HMT MT2
87 6 1 -0.183750 7.989176 8.230680 3.119834 # C1MT MT2
88 6 6 0.038090 8.293510 6.160368 3.640927 # HMT MT2
89 6 6 0.038090 9.177002 7.292284 4.696368 # HMT MT2
90 6 14 1.240010 9.232288 8.026543 1.794360 # SMT MT2
91 6 6 0.056580 8.125596 9.243857 3.565205 # HMT MT2
92 6 6 0.056580 6.979084 8.154553 2.657330 # HMT MT2
93 6 8 -0.755450 9.129476 9.111402 0.390707 # NMT MT2
94 6 13 -0.620630 10.657318 8.262053 2.345519 # O3MT MT2
95 6 13 -0.620630 9.329355 6.571400 1.275841 # O3MT MT2
96 6 14 1.152130 8.758801 8.379508 -1.181181 # SMT MT2
97 6 1 0.369730 7.832259 9.479774 -2.343384 # C1MT MT2
98 6 13 -0.584370 10.125005 7.860065 -1.705403 # O3MT MT2
99 6 13 -0.584370 7.996818 7.066697 -0.857095 # O3MT MT2
100 6 5 -0.179220 8.640140 10.499724 -2.802994 # FMT MT2
101 6 5 -0.179220 6.749740 10.034826 -1.667535 # FMT MT2
102 6 5 -0.179220 7.328442 8.745329 -3.409541 # FMT MT2
103 7 1 -0.043520 4.372697 6.485232 11.148907 # C1MT MT2
104 7 1 0.079520 5.774243 6.133863 10.405035 # C1MT MT2
105 7 6 0.010100 4.307556 7.599364 11.117411 # HMT MT2
106 7 6 0.010100 3.540995 6.199630 10.468547 # HMT MT2
107 7 1 -0.118360 6.841436 5.644583 11.444977 # C1MT MT2
108 7 1 0.728660 6.278794 7.420078 9.627270 # C1MT MT2
109 7 6 0.019290 7.297823 4.688547 11.135669 # HMT MT2
110 7 6 0.019290 6.435307 5.418022 12.438699 # HMT MT2
111 7 6 0.019290 7.642785 6.401023 11.601594 # HMT MT2
112 7 9 -0.433160 7.633271 7.856380 9.696773 # O1MT MT2
113 7 11 -0.612450 5.501890 8.039327 8.908882 # O2MT MT2
114 7 3 0.093400 8.093315 8.729190 8.653141 # C2MT MT2
115 7 1 0.018490 9.494006 9.187288 9.059688 # C1MT MT2
116 7 6 0.072500 7.416693 9.613434 8.541985 # HMT MT2
117 7 6 0.072500 8.134422 8.189479 7.659734 # HMT MT2
118 7 1 -0.183750 9.951937 10.481158 8.362238 # C1MT MT2
119 7 6 0.038090 10.216280 8.369597 8.829571 # HMT MT2
120 7 6 0.038090 9.499825 9.354758 10.160800 # HMT MT2
121 7 14 1.240010 10.257664 10.239502 6.561904 # SMT MT2
122 7 6 0.056580 10.910900 10.812779 8.819353 # HMT MT2
123 7 6 0.056580 9.212450 11.301667 8.507585 # HMT MT2
124 7 8 -0.755450 11.115717 11.561003 5.703394 # NMT MT2
125 7 13 -0.620630 10.978244 8.914372 6.219850 # O3MT MT2
126 7 13 -0.620630 8.918500 10.061532 5.795988 # O3MT MT2
127 7 14 1.152130 12.881647 11.427069 5.430391 # SMT MT2
128 7 1 0.369730 14.001253 12.854300 5.930054 # C1MT MT2
129 7 13 -0.584370 13.308684 10.081585 6.077162 # O3MT MT2
130 7 13 -0.584370 12.986240 11.073682 3.924786 # O3MT MT2
131 7 5 -0.179220 13.819065 13.030931 7.306638 # FMT MT2
132 7 5 -0.179220 13.728942 14.067179 5.299025 # FMT MT2
133 7 5 -0.179220 15.341016 12.561017 5.695456 # FMT MT2
134 8 2 -0.286270 2.575770 6.897963 12.962626 # C1V VEC
135 8 2 -0.166110 3.924290 6.073091 12.641295 # C1V VEC
136 8 7 0.139820 1.859910 6.677493 12.130257 # HV VEC
137 8 7 0.139820 2.858324 7.965830 12.794426 # HV VEC
138 8 2 0.094520 3.749945 4.513213 12.831101 # C1V VEC
139 8 7 0.138440 4.699240 6.449307 13.340976 # HV VEC
140 8 10 -0.405300 4.705725 3.710891 12.137392 # O1V VEC
141 8 2 0.319290 3.881679 4.025134 14.282707 # C1V VEC
142 8 7 0.038600 2.761203 4.258653 12.381549 # HV VEC
143 8 4 0.914620 4.914706 2.577311 12.910607 # C2V VEC
144 8 10 -0.447780 4.495938 2.729002 14.216563 # O1V VEC
145 8 7 0.049150 2.894274 3.974720 14.773933 # HV VEC
146 8 7 0.049150 4.526215 4.701520 14.881524 # HV VEC
147 8 12 -0.577950 5.159975 1.492945 12.405209 # O2V VEC
148 9 2 -0.286270 1.396017 8.276730 14.835122 # C1V VEC
149 9 2 -0.166110 1.753767 6.802366 14.362177 # C1V VEC
150 9 7 0.139820 0.965301 8.802100 13.941367 # HV VEC
151 9 7 0.139820 2.372452 8.779910 14.993092 # HV VEC
152 9 2 0.094520 0.453321 5.943995 14.144773 # C1V VEC
153 9 7 0.138440 2.389937 6.320707 15.126255 # HV VEC
154 9 10 -0.405300 0.842086 4.846128 13.408226 # O1V VEC
155 9 2 0.319290 -0.338470 5.301752 15.318248 # C1V VEC
156 9 7 0.038600 -0.233593 6.556608 13.518609 # HV VEC
157 9 4 0.914620 0.308937 3.696916 13.952945 # C2V VEC
158 9 10 -0.447780 -0.463656 3.895534 15.034592 # O1V VEC
159 9 7 0.049150 -1.349327 5.745881 15.335408 # HV VEC
160 9 7 0.049150 0.162326 5.433173 16.295858 # HV VEC
161 9 12 -0.577950 0.496274 2.615333 13.442639 # O2V VEC
162 10 2 -0.286270 1.121003 9.573102 17.127815 # C1V VEC
163 10 2 -0.166110 0.469680 8.510025 16.124790 # C1V VEC
164 10 7 0.139820 0.750766 10.572526 16.852901 # HV VEC
165 10 7 0.139820 2.204928 9.638552 16.906713 # HV VEC
166 10 2 0.094520 -0.998355 8.952550 15.714570 # C1V VEC
167 10 7 0.138440 0.417806 7.541746 16.629248 # HV VEC
168 10 10 -0.405300 -1.454511 8.207148 14.600523 # O1V VEC
169 10 2 0.319290 -2.091038 8.744000 16.773102 # C1V VEC
170 10 7 0.038600 -1.014102 10.032966 15.426193 # HV VEC
171 10 4 0.914620 -2.790368 7.908081 14.856743 # C2V VEC
172 10 10 -0.447780 -3.241674 8.294207 16.097439 # O1V VEC
173 10 7 0.049150 -2.348946 9.680123 17.295670 # HV VEC
174 10 7 0.049150 -1.817715 7.920501 17.444038 # HV VEC
175 10 12 -0.577950 -3.390820 7.103465 14.177216 # O2V VEC
176 11 1 -0.043520 2.003426 10.483960 19.448696 # C1MT MT2
177 11 1 0.079520 1.084140 9.356992 18.706450 # C1MT MT2
178 11 6 0.010100 2.474108 9.955914 20.320780 # HMT MT2
179 11 6 0.010100 2.857810 10.717065 18.780975 # HMT MT2
180 11 1 -0.118360 -0.331518 9.411528 19.313696 # C1MT MT2
181 11 1 0.728660 1.631837 7.912863 18.955393 # C1MT MT2
182 11 6 0.019290 -0.942467 10.238692 18.934647 # HMT MT2
183 11 6 0.019290 -0.241701 9.528870 20.402302 # HMT MT2
184 11 6 0.019290 -0.878494 8.459965 19.226446 # HMT MT2
185 11 9 -0.433160 0.801448 6.768281 18.727041 # O1MT MT2
186 11 11 -0.612450 2.797337 7.748869 19.284918 # O2MT MT2
187 11 3 0.093400 1.394010 5.466982 18.910244 # C2MT MT2
188 11 1 0.018490 0.287378 4.412447 19.177221 # C1MT MT2
189 11 6 0.072500 2.103375 5.476158 19.771545 # HMT MT2
190 11 6 0.072500 1.985076 5.213041 18.007179 # HMT MT2
191 11 1 -0.183750 0.845246 3.033499 19.625191 # C1MT MT2
192 11 6 0.038090 -0.386427 4.250880 18.291954 # HMT MT2
193 11 6 0.038090 -0.349884 4.830923 19.993132 # HMT MT2
194 11 14 1.240010 1.162143 1.868238 18.229670 # SMT MT2
195 11 6 0.056580 0.084049 2.488344 20.242283 # HMT MT2
196 11 6 0.056580 1.759984 3.118539 20.253000 # HMT MT2
197 11 8 -0.755450 2.619017 0.858302 18.347584 # NMT MT2
198 11 13 -0.620630 -0.014702 0.868110 18.106289 # O3MT MT2
199 11 13 -0.620630 1.227538 2.494271 16.810011 # O3MT MT2
200 11 14 1.152130 2.546538 -0.777176 17.645906 # SMT MT2
201 11 1 0.369730 2.142640 -2.093718 18.915144 # C1MT MT2
202 11 13 -0.584370 1.604215 -0.664765 16.417103 # O3MT MT2
203 11 13 -0.584370 3.942042 -0.904173 16.976343 # O3MT MT2
204 11 5 -0.179220 1.723325 -1.423296 20.064022 # FMT MT2
205 11 5 -0.179220 3.233623 -2.873460 19.289804 # FMT MT2
206 11 5 -0.179220 1.109134 -2.959606 18.555113 # FMT MT2
207 12 2 -0.286270 2.795071 12.538449 20.806629 # C1V VEC
208 12 2 -0.166110 1.514422 11.890084 20.076845 # C1V VEC
209 12 7 0.139820 3.610951 12.712372 20.072250 # HV VEC
210 12 7 0.139820 3.204413 11.740688 21.469212 # HV VEC
211 12 2 0.094520 0.799601 12.911286 19.093000 # C1V VEC
212 12 7 0.138440 0.795639 11.613293 20.881063 # HV VEC
213 12 10 -0.405300 0.027548 12.236033 18.135138 # O1V VEC
214 12 2 0.319290 -0.217534 13.873511 19.794216 # C1V VEC
215 12 7 0.038600 1.570906 13.439950 18.499144 # HV VEC
216 12 4 0.914620 -1.257523 12.742602 18.191784 # C2V VEC
217 12 10 -0.447780 -1.467231 13.708225 19.144314 # O1V VEC
218 12 7 0.049150 0.044637 14.958416 19.746853 # HV VEC
219 12 7 0.049150 -0.360303 13.601665 20.860130 # HV VEC
220 12 12 -0.577950 -2.154190 12.168196 17.605286 # O2V VEC
221 13 2 -0.286270 3.511003 13.774240 22.987831 # C1V VEC
222 13 2 -0.166110 2.661986 13.903843 21.623787 # C1V VEC
223 13 7 0.139820 4.581089 13.773088 22.707853 # HV VEC
224 13 7 0.139820 3.322696 12.751693 23.376150 # HV VEC
225 13 2 0.094520 3.078174 15.187593 20.773710 # C1V VEC
226 13 7 0.138440 1.593815 13.989459 21.819254 # HV VEC
227 13 10 -0.405300 2.820916 15.010631 19.384268 # O1V VEC
228 13 2 0.319290 2.348348 16.510363 21.138365 # C1V VEC
229 13 7 0.038600 4.175601 15.350814 20.868242 # HV VEC
230 13 4 0.914620 2.066367 16.091805 18.966413 # C2V VEC
231 13 10 -0.447780 1.716014 16.978559 19.958817 # O1V VEC
232 13 7 0.049150 3.076980 17.279964 21.451996 # HV VEC
233 13 7 0.049150 1.573379 16.408983 21.910961 # HV VEC
234 13 12 -0.577950 1.548965 16.092297 17.867163 # O2V VEC
235 14 1 -0.043520 4.101159 14.149481 25.568274 # C1MT MT2
236 14 1 0.079520 3.273872 14.713307 24.258926 # C1MT MT2
237 14 6 0.010100 3.491758 14.452623 26.467249 # HMT MT2
238 14 6 0.010100 4.009178 13.038922 25.502941 # HMT MT2
239 14 1 -0.118360 3.694106 16.179810 23.971848 # C1MT MT2
240 14 1 0.728660 1.729320 14.657069 24.544655 # C1MT MT2
241 14 6 0.019290 4.257766 16.250113 23.029940 # HMT MT2
242 14 6 0.019290 4.355242 16.599823 24.768692 # HMT MT2
243 14 6 0.019290 2.818599 16.864260 23.950489 # HMT MT2
244 14 9 -0.433160 0.753321 14.981643 23.545345 # O1MT MT2
245 14 11 -0.612450 1.345087 14.323005 25.655094 # O2MT MT2
246 14 3 0.093400 -0.620970 14.626611 23.819820 # C2MT MT2
247 14 1 0.018490 -1.496605 15.867479 23.593964 # C1MT MT2
248 14 6 0.072500 -0.784537 14.254407 24.864649 # HMT MT2
249 14 6 0.072500 -0.928019 13.778636 23.155622 # HMT MT2
250 14 1 -0.183750 -3.012838 15.584130 23.785162 # C1MT MT2
251 14 6 0.038090 -1.339648 16.261929 22.553593 # HMT MT2
252 14 6 0.038090 -1.134001 16.627012 24.331539 # HMT MT2
253 14 14 1.240010 -3.788754 14.991431 22.203775 # SMT MT2
254 14 6 0.056580 -3.537610 16.522373 24.099094 # HMT MT2
255 14 6 0.056580 -3.175153 14.818784 24.581043 # HMT MT2
256 14 8 -0.755450 -5.566951 14.831130 22.067711 # NMT MT2
257 14 13 -0.620630 -3.375660 15.876817 21.004236 # O3MT MT2
258 14 13 -0.620630 -3.217644 13.622769 21.771414 # O3MT MT2
259 14 14 1.152130 -6.258417 14.232416 20.524498 # SMT MT2
260 14 1 0.369730 -7.747062 15.169324 19.853987 # C1MT MT2
261 14 13 -0.584370 -5.070534 14.179296 19.526590 # O3MT MT2
262 14 13 -0.584370 -6.511086 12.718260 20.781046 # O3MT MT2
263 14 5 -0.179220 -7.320031 16.479153 19.646217 # FMT MT2
264 14 5 -0.179220 -8.793550 15.187960 20.773890 # FMT MT2
265 14 5 -0.179220 -8.207054 14.609075 18.663595 # FMT MT2
266 15 2 -0.286270 5.949719 13.369858 27.259594 # C1V VEC
267 15 2 -0.166110 5.592087 14.478641 26.138348 # C1V VEC
268 15 7 0.139820 5.985823 12.372658 26.745981 # HV VEC
269 15 7 0.139820 5.050254 13.338383 27.917292 # HV VEC
270 15 2 0.094520 6.745777 14.624106 25.077616 # C1V VEC
271 15 7 0.138440 5.518540 15.447141 26.687229 # HV VEC
272 15 10 -0.405300 6.264106 14.913986 23.786781 # O1V VEC
273 15 2 0.319290 7.776810 15.762170 25.398178 # C1V VEC
274 15 7 0.038600 7.245040 13.654831 24.973919 # HV VEC
275 15 4 0.914620 6.925767 16.045639 23.361586 # C2V VEC
276 15 10 -0.447780 7.791364 16.620544 24.259285 # O1V VEC
277 15 7 0.049150 8.816497 15.384384 25.565695 # HV VEC
278 15 7 0.049150 7.501540 16.353870 26.302359 # HV VEC
279 15 12 -0.577950 6.634789 16.526461 22.283165 # O2V VEC
280 16 2 -0.286270 6.903311 12.921370 29.733063 # C1V VEC
281 16 2 -0.166110 7.228987 13.475405 28.237150 # C1V VEC
282 16 7 0.139820 6.964752 11.810759 29.749475 # HV VEC
283 16 7 0.139820 5.819156 13.070986 29.894739 # HV VEC
284 16 2 0.094520 8.493953 12.693471 27.671492 # C1V VEC
285 16 7 0.138440 7.445325 14.560155 28.333874 # HV VEC
286 16 10 -0.405300 8.441751 12.387262 26.276861 # O1V VEC
287 16 2 0.319290 9.811955 13.460796 27.864464 # C1V VEC
288 16 7 0.038600 8.579253 11.706550 28.195057 # HV VEC
289 16 4 0.914620 9.631172 12.868512 25.744413 # C2V VEC
290 16 10 -0.447780 10.405023 13.615767 26.587696 # O1V VEC
291 16 7 0.049150 10.472798 12.822630 28.435383 # HV VEC
292 16 7 0.049150 9.704178 14.439091 28.370613 # HV VEC
293 16 12 -0.577950 9.843832 12.806827 24.552765 # O2V VEC
294 17 2 -0.286270 6.619906 13.556784 32.281216 # C1V VEC
295 17 2 -0.166110 7.665185 13.485556 31.055265 # C1V VEC
296 17 7 0.139820 6.143759 12.552385 32.406994 # HV VEC
297 17 7 0.139820 5.810713 14.212980 31.881077 # HV VEC
298 17 2 0.094520 8.917639 12.610227 31.459200 # C1V VEC
299 17 7 0.138440 7.993024 14.511813 30.791868 # HV VEC
300 17 10 -0.405300 9.531794 11.955719 30.362890 # O1V VEC
301 17 2 0.319290 10.077317 13.353752 32.144596 # C1V VEC
302 17 7 0.038600 8.577335 11.798018 32.118790 # HV VEC
303 17 4 0.914620 10.875020 11.878587 30.696911 # C2V VEC
304 17 10 -0.447780 11.257328 12.665668 31.756933 # O1V VEC
305 17 7 0.049150 10.009698 13.311223 33.242630 # HV VEC
306 17 7 0.049150 10.149383 14.392204 31.781023 # HV VEC
307 17 12 -0.577950 11.659811 11.251313 30.016432 # O2V VEC
308 18 2 -0.286270 5.669477 14.883477 34.368473 # C1V VEC
309 18 2 -0.166110 6.967746 14.090956 33.767395 # C1V VEC
310 18 7 0.139820 4.793041 14.534325 33.773731 # HV VEC
311 18 7 0.139820 5.786814 15.944085 34.050762 # HV VEC
312 18 2 0.094520 7.494060 12.967371 34.753490 # C1V VEC
313 18 7 0.138440 7.781225 14.836788 33.619884 # HV VEC
314 18 10 -0.405300 7.819798 11.712616 34.135845 # O1V VEC
315 18 2 0.319290 8.705135 13.312424 35.636517 # C1V VEC
316 18 7 0.038600 6.694757 12.798521 35.470207 # HV VEC
317 18 4 0.914620 8.975118 11.265289 34.787045 # C2V VEC
318 18 10 -0.447780 9.517631 12.136857 35.701839 # O1V VEC
319 18 7 0.049150 8.351389 13.543189 36.647156 # HV VEC
320 18 7 0.049150 9.291343 14.168583 35.251617 # HV VEC
321 18 12 -0.577950 9.482876 10.184364 34.568359 # O2V VEC
322 19 2 -0.286270 4.028202 16.017988 36.105343 # C1V VEC
323 19 2 -0.166110 5.082049 14.819945 35.874496 # C1V VEC
324 19 7 0.139820 3.037007 15.708353 35.695705 # HV VEC
325 19 7 0.139820 4.345251 16.838245 35.430267 # HV VEC
326 19 2 0.094520 4.339683 13.427860 36.153805 # C1V VEC
327 19 7 0.138440 5.921785 14.998116 36.586147 # HV VEC
328 19 10 -0.405300 4.306012 12.577169 35.004044 # O1V VEC
329 19 2 0.319290 4.944564 12.572969 37.275982 # C1V VEC
330 19 7 0.038600 3.270410 13.586307 36.439247 # HV VEC
331 19 4 0.914620 4.716730 11.322591 35.434475 # C2V VEC
332 19 10 -0.447780 5.185764 11.281563 36.732273 # O1V VEC
333 19 7 0.049150 4.199124 12.475380 38.071896 # HV VEC
334 19 7 0.049150 5.881423 12.991202 37.692482 # HV VEC
335 19 12 -0.577950 4.710881 10.366325 34.678112 # O2V VEC
336 20 2 -0.286270 3.145089 18.207563 37.270813 # C1V VEC
337 20 2 -0.166110 3.786286 16.718163 37.543659 # C1V VEC
338 20 7 0.139820 2.223323 18.054844 36.665005 # HV VEC
339 20 7 0.139820 3.880695 18.677752 36.588730 # HV VEC
340 20 2 0.094520 2.900677 15.845785 38.544781 # C1V VEC
341 20 7 0.138440 4.787939 16.863529 38.014530 # HV VEC
342 20 10 -0.405300 3.332222 14.475699 38.767025 # O1V VEC
343 20 2 0.319290 2.951962 16.443331 39.962852 # C1V VEC
344 20 7 0.038600 1.849502 15.864782 38.150272 # HV VEC
345 20 4 0.914620 3.934342 14.484941 40.028526 # C2V VEC
346 20 10 -0.447780 3.851175 15.664524 40.729565 # O1V VEC
347 20 7 0.049150 1.940800 16.384520 40.417019 # HV VEC
348 20 7 0.049150 3.323950 17.463667 39.981834 # HV VEC
349 20 12 -0.577950 4.375772 13.467230 40.538551 # O2V VEC
350 21 2 -0.286270 2.945136 20.878483 37.682571 # C1V VEC
351 21 2 -0.166110 2.780931 19.389410 38.343334 # C1V VEC
352 21 7 0.139820 2.106335 21.056610 36.969303 # HV VEC
353 21 7 0.139820 3.801388 20.802782 36.985649 # HV VEC
354 21 2 0.094520 1.306960 19.194960 38.936966 # C1V VEC
355 21 7 0.138440 3.547395 19.371367 39.146778 # HV VEC
356 21 10 -0.405300 0.691060 17.934767 38.619427 # O1V VEC
357 21 2 0.319290 1.205455 19.305826 40.462547 # C1V VEC
358 21 7 0.038600 0.616336 19.976784 38.530380 # HV VEC
359 21 4 0.914620 -0.154459 17.706051 39.697353 # C2V VEC
360 21 10 -0.447780 0.192410 18.393398 40.847004 # O1V VEC
361 21 7 0.049150 0.895386 20.313347 40.783375 # HV VEC
362 21 7 0.049150 2.140805 19.051584 40.992676 # HV VEC
363 21 12 -0.577950 -1.138300 16.988194 39.645840 # O2V VEC
364 22 2 -0.286270 4.009700 23.356133 37.632332 # C1V VEC
365 22 2 -0.166110 3.274768 22.226748 38.535835 # C1V VEC
366 22 7 0.139820 3.391487 23.471298 36.716167 # HV VEC
367 22 7 0.139820 4.972918 22.923286 37.263241 # HV VEC
368 22 2 0.094520 2.021404 22.884724 39.195969 # C1V VEC
369 22 7 0.138440 3.983463 21.934002 39.340275 # HV VEC
370 22 10 -0.405300 0.863903 22.084307 39.180225 # O1V VEC
371 22 2 0.319290 2.165793 23.271202 40.674824 # C1V VEC
372 22 7 0.038600 1.740350 23.806978 38.632767 # HV VEC
373 22 4 0.914620 0.102358 22.628910 40.227139 # C2V VEC
374 22 10 -0.447780 0.823213 23.440676 41.107098 # O1V VEC
375 22 7 0.049150 2.792327 24.154526 40.861141 # HV VEC
376 22 7 0.049150 2.635353 22.447620 41.257267 # HV VEC
377 22 12 -0.577950 -1.075525 22.365919 40.396606 # O2V VEC
378 23 2 -0.286270 5.784263 25.373993 37.987728 # C1V VEC
379 23 2 -0.166110 4.257179 24.863722 38.195274 # C1V VEC
380 23 7 0.139820 5.862787 25.900515 37.008526 # HV VEC
381 23 7 0.139820 6.444717 24.479944 37.905964 # HV VEC
382 23 2 0.094520 3.187714 25.981852 37.662945 # C1V VEC
383 23 7 0.138440 4.167099 24.807543 39.294399 # HV VEC
384 23 10 -0.405300 2.540971 25.659851 36.429462 # O1V VEC
385 23 2 0.319290 2.015333 26.364447 38.624081 # C1V VEC
386 23 7 0.038600 3.733076 26.928591 37.469326 # HV VEC
387 23 4 0.914620 1.171869 25.696415 36.685619 # C2V VEC
388 23 10 -0.447780 0.807859 25.977425 37.983856 # O1V VEC
389 23 7 0.049150 1.970160 27.472780 38.804203 # HV VEC
390 23 7 0.049150 2.091215 25.894430 39.617950 # HV VEC
391 23 12 -0.577950 0.356465 25.401703 35.832981 # O2V VEC
392 24 2 -0.286270 7.997911 26.679735 38.935268 # C1V VEC
393 24 2 -0.166110 6.422911 26.296518 39.141346 # C1V VEC
394 24 7 0.139820 8.089047 27.701134 38.497906 # HV VEC
395 24 7 0.139820 8.343985 26.022913 38.110100 # HV VEC
396 24 2 0.094520 5.573281 27.580090 39.370220 # C1V VEC
397 24 7 0.138440 6.300821 25.646393 40.033077 # HV VEC
398 24 10 -0.405300 4.275325 27.247580 39.826103 # O1V VEC
399 24 2 0.319290 6.081218 28.528658 40.441658 # C1V VEC
400 24 7 0.038600 5.502136 28.148888 38.407967 # HV VEC
401 24 4 0.914620 3.881993 28.338076 40.585777 # C2V VEC
402 24 10 -0.447780 4.910290 29.190060 40.944057 # O1V VEC
403 24 7 0.049150 6.833728 29.238329 40.048656 # HV VEC
404 24 7 0.049150 6.553305 27.869711 41.220036 # HV VEC
405 24 12 -0.577950 2.720620 28.572752 40.841930 # O2V VEC
406 25 1 -0.043520 10.451678 25.854301 39.685745 # C1MT MT2
407 25 1 0.079520 9.065037 26.536858 40.157993 # C1MT MT2
408 25 6 0.010100 10.670535 25.008259 40.378025 # HMT MT2
409 25 6 0.010100 10.249320 25.246346 38.788937 # HMT MT2
410 25 1 -0.118360 9.448321 27.931519 40.808598 # C1MT MT2
411 25 1 0.728660 8.366697 25.623913 41.199249 # C1MT MT2
412 25 6 0.019290 9.709388 28.666426 40.010113 # HMT MT2
413 25 6 0.019290 10.297885 27.864967 41.542404 # HMT MT2
414 25 6 0.019290 8.622866 28.349918 41.399986 # HMT MT2
415 25 9 -0.433160 7.294678 26.137415 41.967945 # O1MT MT2
416 25 11 -0.612450 8.499408 24.408577 41.139809 # O2MT MT2
417 25 3 0.093400 6.968202 25.373993 43.131966 # C2MT MT2
418 25 1 0.018490 6.111397 26.278404 43.997185 # C1MT MT2
419 25 6 0.072500 7.900765 25.079685 43.691334 # HMT MT2
420 25 6 0.072500 6.412400 24.445036 42.850983 # HMT MT2
421 25 1 -0.183750 5.650166 25.639462 45.318703 # C1MT MT2
422 25 6 0.038090 5.258417 26.655874 43.398514 # HMT MT2
423 25 6 0.038090 6.726289 27.167959 44.221180 # HMT MT2
424 25 14 1.240010 4.404581 24.308762 45.058170 # SMT MT2
425 25 6 0.056580 5.126503 26.402617 45.944992 # HMT MT2
426 25 6 0.056580 6.540521 25.277847 45.895279 # HMT MT2
427 25 8 -0.755450 3.624998 23.674805 46.527637 # NMT MT2
428 25 13 -0.620630 3.254288 24.700600 44.097248 # O3MT MT2
429 25 13 -0.620630 5.000896 23.061510 44.355595 # O3MT MT2
430 25 14 1.152130 2.129032 24.476936 47.069984 # SMT MT2
431 25 1 0.369730 2.042773 24.900831 48.882389 # C1MT MT2
432 25 13 -0.584370 1.945957 25.714828 46.150242 # O3MT MT2
433 25 13 -0.584370 1.010925 23.527325 46.563488 # O3MT MT2
434 25 5 -0.179220 3.082884 25.816839 49.110218 # FMT MT2
435 25 5 -0.179220 2.223903 23.783566 49.691734 # FMT MT2
436 25 5 -0.179220 0.828039 25.492208 49.213699 # FMT MT2
437 26 2 -0.286270 13.046590 25.844322 39.903458 # C1V VEC
438 26 2 -0.166110 11.800478 26.704462 39.381332 # C1V VEC
439 26 7 0.139820 12.935970 24.807623 39.524532 # HV VEC
440 26 7 0.139820 12.843871 25.714024 40.993221 # HV VEC
441 26 2 0.094520 11.839703 27.067610 37.852081 # C1V VEC
442 26 7 0.138440 11.817786 27.651424 39.957542 # HV VEC
443 26 10 -0.405300 10.520771 27.280647 37.377060 # O1V VEC
444 26 2 0.319290 12.608764 28.347422 37.425282 # C1V VEC
445 26 7 0.038600 12.187599 26.160795 37.316021 # HV VEC
446 26 4 0.914620 10.572788 28.308722 36.468224 # C2V VEC
447 26 10 -0.447780 11.745437 29.051235 36.524765 # O1V VEC
448 26 7 0.049150 13.574074 28.129320 36.894096 # HV VEC
449 26 7 0.049150 12.840767 28.993887 38.303902 # HV VEC
450 26 12 -0.577950 9.793366 28.354309 35.529041 # O2V VEC
451 27 2 -0.286270 15.386457 25.770285 41.021591 # C1V VEC
452 27 2 -0.166110 14.572927 26.230753 39.700752 # C1V VEC
453 27 7 0.139820 15.338264 24.661440 41.100960 # HV VEC
454 27 7 0.139820 14.765879 26.121704 41.874035 # HV VEC
455 27 2 0.094520 15.152767 25.530239 38.403393 # C1V VEC
456 27 7 0.138440 14.618180 27.336838 39.617504 # HV VEC
457 27 10 -0.405300 14.163161 25.144867 37.462887 # O1V VEC
458 27 2 0.319290 16.159172 26.419636 37.607933 # C1V VEC
459 27 7 0.038600 15.579817 24.564987 38.717361 # HV VEC
460 27 4 0.914620 14.540839 25.692432 36.243473 # C2V VEC
461 27 10 -0.447780 15.678076 26.485144 36.268089 # O1V VEC
462 27 7 0.049150 17.172539 25.996408 37.581444 # HV VEC
463 27 7 0.049150 16.255621 27.443619 38.027290 # HV VEC
464 27 12 -0.577950 13.797159 25.600939 35.273716 # O2V VEC
465 28 2 -0.286270 16.998205 26.227383 43.008602 # C1V VEC
466 28 2 -0.166110 16.880426 26.195250 41.399197 # C1V VEC
467 28 7 0.139820 16.595757 25.266943 43.407272 # HV VEC
468 28 7 0.139820 16.259823 26.987104 43.324795 # HV VEC
469 28 2 0.094520 17.950420 25.217216 40.795464 # C1V VEC