Combined LAMMPS data file

12256 atoms
12872 bonds
22206 angles
23166 dihedrals
0 impropers

22 atom types
21 bond types
39 angle types
53 dihedral types
0 improper types

-0.05000 82.055000 xlo xhi
-0.05000 83.955000 ylo yhi
0.000000 44.00000 zlo zhi

Masses

1 6.941000 # Li
2 12.011000 # C1P
3 1.008000 # HP
4 15.999000 # O1P
5 6.941000 # LP
6 12.011000 # C1C
7 15.999000 # O1C
8 15.999000 # O2C
9 12.011000 # C1MT
10 12.011000 # C1V
11 12.011000 # C2MT
12 12.011000 # C2V
13 18.997999 # FMT
14 1.008000 # HMT
15 1.008000 # HV
16 14.007000 # NMT
17 15.999000 # O1MT
18 15.999000 # O1V
19 15.999000 # O2MT
20 15.999000 # O2V
21 15.999000 # O3MT
22 32.060001 # SMT

# Pair Coeffs

# 1 Li
# 2 C1P
# 3 HP
# 4 O1P
# 5 LP
# 6 C1C
# 7 O1C
# 8 O2C
# 9 C1MT
# 10 C1V
# 11 C2MT
# 12 C2V
# 13 FMT
# 14 HMT
# 15 HV
# 16 NMT
# 17 O1MT
# 18 O1V
# 19 O2MT
# 20 O2V
# 21 O3MT
# 22 SMT

# Bond Coeffs

# 1 C1P-C1P
# 2 C1P-HP
# 3 C1P-O1P
# 4 C1C-O1C
# 5 C1C-O2C
# 6 C1MT-C1MT
# 7 C1MT-C1V
# 8 C1MT-C2MT
# 9 C1MT-FMT
# 10 C1MT-HMT
# 11 C1MT-O1MT
# 12 C1MT-SMT
# 13 C1V-C1V
# 14 C1V-HV
# 15 C1V-O1V
# 16 C2MT-O1MT
# 17 C2MT-O2MT
# 18 C2V-O1V
# 19 C2V-O2V
# 20 NMT-SMT
# 21 O3MT-SMT

# Angle Coeffs

# 1 C1P-C1P-HP
# 2 C1P-C1P-O1P
# 3 C1P-O1P-C1P
# 4 HP-C1P-HP
# 5 HP-C1P-O1P
# 6 O1C-C1C-O2C
# 7 O2C-C1C-O2C
# 8 C1MT-C1MT-C1MT
# 9 C1MT-C1MT-C1V
# 10 C1MT-C1MT-C2MT
# 11 C1MT-C1MT-HMT
# 12 C1MT-C1MT-O1MT
# 13 C1MT-C1MT-SMT
# 14 C1MT-C1V-C1V
# 15 C1MT-C1V-HV
# 16 C1MT-C2MT-O1MT
# 17 C1MT-C2MT-O2MT
# 18 C1MT-O1MT-C2MT
# 19 C1MT-SMT-NMT
# 20 C1MT-SMT-O3MT
# 21 C1V-C1MT-C2MT
# 22 C1V-C1MT-HMT
# 23 C1V-C1V-C1V
# 24 C1V-C1V-HV
# 25 C1V-C1V-O1V
# 26 C1V-O1V-C2V
# 27 FMT-C1MT-FMT
# 28 FMT-C1MT-SMT
# 29 HMT-C1MT-HMT
# 30 HMT-C1MT-O1MT
# 31 HMT-C1MT-SMT
# 32 HV-C1V-HV
# 33 HV-C1V-O1V
# 34 NMT-SMT-O3MT
# 35 O1MT-C2MT-O2MT
# 36 O1V-C2V-O1V
# 37 O1V-C2V-O2V
# 38 O3MT-SMT-O3MT
# 39 SMT-NMT-SMT

# Dihedral Coeffs

# 1 C1P-C1P-O1P-C1P
# 2 HP-C1P-C1P-HP
# 3 HP-C1P-C1P-O1P
# 4 HP-C1P-O1P-C1P
# 5 O1P-C1P-C1P-O1P
# 6 C1MT-C1MT-C1MT-C1MT
# 7 C1MT-C1MT-C1MT-C1V
# 8 C1MT-C1MT-C1MT-C2MT
# 9 C1MT-C1MT-C1MT-HMT
# 10 C1MT-C1MT-C1MT-O1MT
# 11 C1MT-C1MT-C1MT-SMT
# 12 C1MT-C1MT-C1V-C1V
# 13 C1MT-C1MT-C1V-HV
# 14 C1MT-C1MT-C2MT-O1MT
# 15 C1MT-C1MT-C2MT-O2MT
# 16 C1MT-C1MT-O1MT-C2MT
# 17 C1MT-C1MT-SMT-NMT
# 18 C1MT-C1MT-SMT-O3MT
# 19 C1MT-C1V-C1V-C1V
# 20 C1MT-C1V-C1V-HV
# 21 C1MT-C1V-C1V-O1V
# 22 C1MT-C2MT-O1MT-C1MT
# 23 C1V-C1MT-C1MT-C1V
# 24 C1V-C1MT-C1MT-C2MT
# 25 C1V-C1MT-C1MT-HMT
# 26 C1V-C1MT-C2MT-O1MT
# 27 C1V-C1MT-C2MT-O2MT
# 28 C1V-C1V-C1V-C1V
# 29 C1V-C1V-C1V-HV
# 30 C1V-C1V-C1V-O1V
# 31 C1V-C1V-O1V-C2V
# 32 C2MT-C1MT-C1MT-HMT
# 33 C2MT-C1MT-C1V-C1V
# 34 C2MT-C1MT-C1V-HV
# 35 FMT-C1MT-SMT-NMT
# 36 FMT-C1MT-SMT-O3MT
# 37 HMT-C1MT-C1MT-HMT
# 38 HMT-C1MT-C1MT-O1MT
# 39 HMT-C1MT-C1MT-SMT
# 40 HMT-C1MT-C1V-C1V
# 41 HMT-C1MT-C1V-HV
# 42 HMT-C1MT-O1MT-C2MT
# 43 HMT-C1MT-SMT-NMT
# 44 HMT-C1MT-SMT-O3MT
# 45 HV-C1V-C1V-HV
# 46 HV-C1V-C1V-O1V
# 47 HV-C1V-O1V-C2V
# 48 O1V-C1V-C1V-O1V
# 49 O1V-C2V-O1V-C1V
# 50 O2MT-C2MT-O1MT-C1MT
# 51 O2V-C2V-O1V-C1V
# 52 SMT-NMT-SMT-C1MT
# 53 SMT-NMT-SMT-O3MT

Atoms

1	2	2	0.309	40.088	82.603	16.703	#C1P	EOI
2	2	3	-0.002	40.483	81.618	16.397	#HP	EOI
3	2	3	-0.002	39.47	82.981	15.868	#HP	EOI
4	2	2	0.168	41.265	83.554	17.021	#C1P	EOT
5	2	3	0.028	41.69	83.251	17.993	#HP	EOT
6	2	3	0.028	40.888	84.585	17.157	#HP	EOT
7	2	4	-0.472	42.36	83.509	16.114	#O1P	EOT
8	3	2	0.309	38.484	80.164	17.984	#C1P	EOI
9	3	3	-0.002	39.426	79.939	18.514	#HP	EOI
10	3	3	-0.002	38.614	79.837	16.938	#HP	EOI
11	3	2	0.309	38.207	81.683	18.028	#C1P	EOI
12	3	3	-0.002	37.807	81.926	19.026	#HP	EOI
13	3	3	-0.002	37.423	81.947	17.295	#HP	EOI
14	3	4	-0.61	39.345	82.531	17.909	#O1P	EOI
15	4	2	0.309	38.185	77.092	18.531	#C1P	EOI
16	4	3	-0.002	37.832	76.451	19.355	#HP	EOI
17	4	3	-0.002	39.089	77.591	18.912	#HP	EOI
18	4	2	0.309	37.117	78.162	18.158	#C1P	EOI
19	4	3	-0.002	36.14	77.918	18.608	#HP	EOI
20	4	3	-0.002	36.943	78.17	17.07	#HP	EOI
21	4	4	-0.61	37.405	79.48	18.63	#O1P	EOI
22	5	2	0.309	40.62	77.224	16.574	#C1P	EOI
23	5	3	-0.002	41.338	76.394	16.694	#HP	EOI
24	5	3	-0.002	40.671	77.806	17.504	#HP	EOI
25	5	2	0.309	39.177	76.699	16.35	#C1P	EOI
26	5	3	-0.002	39.179	75.86	15.637	#HP	EOI
27	5	3	-0.002	38.588	77.501	15.871	#HP	EOI
28	5	4	-0.61	38.505	76.166	17.492	#O1P	EOI
29	6	2	0.309	40.815	77.089	13.306	#C1P	EOI
30	6	3	-0.002	40.167	77.896	12.926	#HP	EOI
31	6	3	-0.002	40.14	76.331	13.739	#HP	EOI
32	6	2	0.309	41.731	77.672	14.412	#C1P	EOI
33	6	3	-0.002	42.268	78.548	14.016	#HP	EOI
34	6	3	-0.002	42.504	76.945	14.708	#HP	EOI
35	6	4	-0.61	41.024	78.157	15.564	#O1P	EOI
36	7	2	0.309	42.029	74.401	13.35	#C1P	EOI
37	7	3	-0.002	41.073	73.969	13.014	#HP	EOI
38	7	3	-0.002	41.852	74.806	14.361	#HP	EOI
39	7	2	0.309	42.427	75.535	12.375	#C1P	EOI
40	7	3	-0.002	42.623	75.103	11.381	#HP	EOI
41	7	3	-0.002	43.373	76.001	12.704	#HP	EOI
42	7	4	-0.61	41.449	76.552	12.144	#O1P	EOI
43	8	2	0.309	44.66	74.196	15.053	#C1P	EOI
44	8	3	-0.002	44.122	73.664	15.857	#HP	EOI
45	8	3	-0.002	44.354	75.257	15.1	#HP	EOI
46	8	2	0.309	44.296	73.556	13.696	#C1P	EOI
47	8	3	-0.002	44.771	72.562	13.654	#HP	EOI
48	8	3	-0.002	44.758	74.149	12.883	#HP	EOI
49	8	4	-0.61	42.92	73.288	13.437	#O1P	EOI
50	9	2	0.309	46.294	73.583	17.58	#C1P	EOI
51	9	3	-0.002	46.224	72.529	17.262	#HP	EOI
52	9	3	-0.002	45.282	73.893	17.88	#HP	EOI
53	9	2	0.309	46.712	74.449	16.379	#C1P	EOI
54	9	3	-0.002	47.786	74.308	16.186	#HP	EOI
55	9	3	-0.002	46.561	75.522	16.594	#HP	EOI
56	9	4	-0.61	46.073	74.062	15.169	#O1P	EOI
57	10	2	0.309	45.588	72.647	20.325	#C1P	EOI
58	10	3	-0.002	46.098	71.743	20.695	#HP	EOI
59	10	3	-0.002	45.009	72.333	19.447	#HP	EOI
60	10	2	0.309	46.615	73.755	19.957	#C1P	EOI
61	10	3	-0.002	47.456	73.74	20.67	#HP	EOI
62	10	3	-0.002	46.138	74.742	20.072	#HP	EOI
63	10	4	-0.61	47.221	73.659	18.668	#O1P	EOI
64	11	2	0.309	43.278	74.66	20.022	#C1P	EOI
65	11	3	-0.002	43.459	74.271	19.01	#HP	EOI
66	11	3	-0.002	44.091	75.369	20.228	#HP	EOI
67	11	2	0.309	43.378	73.489	21.035	#C1P	EOI
68	11	3	-0.002	42.785	72.634	20.669	#HP	EOI
69	11	3	-0.002	42.939	73.782	21.999	#HP	EOI
70	11	4	-0.61	44.717	73.081	21.377	#O1P	EOI
71	12	2	0.309	42.55	77.427	21.243	#C1P	EOI
72	12	3	-0.002	42.126	78.331	20.777	#HP	EOI
73	12	3	-0.002	43.526	77.287	20.753	#HP	EOI
74	12	2	0.309	41.626	76.193	20.972	#C1P	EOI
75	12	3	-0.002	40.618	76.53	20.678	#HP	EOI
76	12	3	-0.002	41.478	75.611	21.895	#HP	EOI
77	12	4	-0.61	42.023	75.337	19.897	#O1P	EOI
78	13	2	0.309	44.948	76.581	23.121	#C1P	EOI
79	13	3	-0.002	45.596	77.454	23.324	#HP	EOI
80	13	3	-0.002	45.094	76.313	22.061	#HP	EOI
81	13	2	0.309	43.456	76.862	23.417	#C1P	EOI
82	13	3	-0.002	43.375	77.258	24.445	#HP	EOI
83	13	3	-0.002	42.947	75.883	23.413	#HP	EOI
84	13	4	-0.61	42.731	77.795	22.615	#O1P	EOI
85	14	2	0.309	47.649	75.243	24.719	#C1P	EOI
86	14	3	-0.002	47.242	76.036	25.363	#HP	EOI
87	14	3	-0.002	48.49	75.698	24.167	#HP	EOI
88	14	2	0.309	46.507	74.771	23.779	#C1P	EOI
89	14	3	-0.002	46.247	73.732	24.025	#HP	EOI
90	14	3	-0.002	46.8	74.774	22.718	#HP	EOI
91	14	4	-0.61	45.282	75.487	23.981	#O1P	EOI
92	15	2	0.309	48.008	74.995	27.829	#C1P	EOI
93	15	3	-0.002	47.468	74.157	28.301	#HP	EOI
94	15	3	-0.002	47.242	75.676	27.43	#HP	EOI
95	15	2	0.309	48.876	74.489	26.655	#C1P	EOI
96	15	3	-0.002	49.414	73.569	26.938	#HP	EOI
97	15	3	-0.002	49.648	75.241	26.427	#HP	EOI
98	15	4	-0.61	48.124	74.136	25.49	#O1P	EOI
99	16	2	0.309	47.04	76.313	30.448	#C1P	EOI
100	16	3	-0.002	47.465	75.882	31.372	#HP	EOI
101	16	3	-0.002	46.43	75.526	29.984	#HP	EOI
102	16	2	0.309	48.148	76.74	29.464	#C1P	EOI
103	16	3	-0.002	48.942	77.285	29.998	#HP	EOI
104	16	3	-0.002	47.717	77.444	28.728	#HP	EOI
105	16	4	-0.61	48.815	75.658	28.807	#O1P	EOI
106	17	2	0.309	46.947	79.641	31.158	#C1P	EOI
107	17	3	-0.002	47.047	79.543	30.061	#HP	EOI
108	17	3	-0.002	47.948	79.907	31.547	#HP	EOI
109	17	2	0.309	46.459	78.3	31.749	#C1P	EOI
110	17	3	-0.002	45.532	78.472	32.315	#HP	EOI
111	17	3	-0.002	47.174	77.866	32.464	#HP	EOI
112	17	4	-0.61	46.106	77.355	30.733	#O1P	EOI
113	18	2	0.309	45.493	83.039	31.423	#C1P	EOI
114	18	3	-0.002	44.51	82.8	30.984	#HP	EOI
115	18	3	-0.002	45.83	83.975	30.95	#HP	EOI
116	18	2	0.309	46.494	81.931	31.092	#C1P	EOI
117	18	3	-0.002	47.445	82.127	31.616	#HP	EOI
118	18	3	-0.002	46.713	81.956	30.011	#HP	EOI
119	18	4	-0.61	46.001	80.656	31.467	#O1P	EOI
120	19	2	0.309	44.53	84.433	34.723	#C1P	EOI
121	19	3	-0.002	44.578	85.413	35.227	#HP	EOI
122	19	3	-0.002	45.144	83.744	35.327	#HP	EOI
123	19	2	0.309	45.14	84.516	33.318	#C1P	EOI
124	19	3	-0.002	46.107	85.053	33.356	#HP	EOI
125	19	3	-0.002	44.484	85.098	32.649	#HP	EOI
126	19	4	-0.61	45.342	83.191	32.835	#O1P	EOI
127	20	2	0.309	40.993	83.902	33.847	#C1P	EOI
128	20	3	-0.002	40.437	83.491	34.707	#HP	EOI
129	20	3	-0.002	41.422	83.035	33.319	#HP	EOI
130	20	2	0.309	42.158	84.778	34.358	#C1P	EOI
131	20	3	-0.002	41.852	85.414	35.207	#HP	EOI
132	20	3	-0.002	42.491	85.461	33.562	#HP	EOI
133	20	4	-0.61	43.205	83.891	34.756	#O1P	EOI
134	21	2	0.309	41.197	84.112	30.822	#C1P	EOI
135	21	3	-0.002	40.666	83.154	30.695	#HP	EOI
136	21	3	-0.002	42.192	83.88	31.236	#HP	EOI
137	21	2	0.309	40.429	85.053	31.781	#C1P	EOI
138	21	3	-0.002	39.5	85.379	31.286	#HP	EOI
139	21	3	-0.002	41.039	85.964	31.924	#HP	EOI
140	21	4	-0.61	39.999	84.526	33.039	#O1P	EOI
141	22	2	0.309	42.87	83.172	28.315	#C1P	EOI
142	22	3	-0.002	42.053	82.745	27.706	#HP	EOI
143	22	3	-0.002	43.026	82.493	29.17	#HP	EOI
144	22	2	0.309	42.521	84.589	28.823	#C1P	EOI
145	22	3	-0.002	42.421	85.258	27.951	#HP	EOI
146	22	3	-0.002	43.379	84.965	29.414	#HP	EOI
147	22	4	-0.61	41.301	84.754	29.548	#O1P	EOI
148	23	2	0.309	44.551	81.038	26.486	#C1P	EOI
149	23	3	-0.002	44.309	81.424	25.483	#HP	EOI
150	23	3	-0.002	43.661	80.503	26.853	#HP	EOI
151	23	2	0.309	44.938	82.196	27.431	#C1P	EOI
152	23	3	-0.002	45.882	82.628	27.063	#HP	EOI
153	23	3	-0.002	45.147	81.767	28.427	#HP	EOI
154	23	4	-0.61	44.047	83.309	27.516	#O1P	EOI
155	24	2	0.309	47.722	79.278	25.654	#C1P	EOI
156	24	3	-0.002	47.434	78.266	25.987	#HP	EOI
157	24	3	-0.002	48.196	79.775	26.519	#HP	EOI
158	24	2	0.309	46.457	80.076	25.3	#C1P	EOI
159	24	3	-0.002	45.933	79.621	24.44	#HP	EOI
160	24	3	-0.002	46.748	81.101	25.003	#HP	EOI
161	24	4	-0.61	45.615	80.074	26.455	#O1P	EOI
162	25	2	0.309	50.362	77.728	25.579	#C1P	EOI
163	25	3	-0.002	50.336	76.93	24.819	#HP	EOI
164	25	3	-0.002	49.595	77.469	26.329	#HP	EOI
165	25	2	0.309	49.991	79.079	24.917	#C1P	EOI
166	25	3	-0.002	50.568	79.209	23.988	#HP	EOI
167	25	3	-0.002	50.267	79.918	25.579	#HP	EOI
168	25	4	-0.61	48.615	79.197	24.539	#O1P	EOI
169	26	2	0.309	51.063	78.544	28.418	#C1P	EOI
170	26	3	-0.002	51.088	77.542	28.874	#HP	EOI
171	26	3	-0.002	50.017	78.714	28.107	#HP	EOI
172	26	2	0.309	51.994	78.55	27.18	#C1P	EOI
173	26	3	-0.002	53.009	78.263	27.496	#HP	EOI
174	26	3	-0.002	52.073	79.57	26.765	#HP	EOI
175	26	4	-0.61	51.668	77.619	26.146	#O1P	EOI
176	27	2	0.309	49.976	81.372	28.767	#C1P	EOI
177	27	3	-0.002	49.231	81.127	29.539	#HP	EOI
178	27	3	-0.002	49.655	80.869	27.844	#HP	EOI
179	27	2	0.309	51.363	80.832	29.188	#C1P	EOI
180	27	3	-0.002	51.68	81.317	30.123	#HP	EOI
181	27	3	-0.002	52.113	81.111	28.424	#HP	EOI
182	27	4	-0.61	51.415	79.433	29.479	#O1P	EOI
183	28	2	0.309	50.424	84.174	30.461	#C1P	EOI
184	28	3	-0.002	51.176	84.832	29.995	#HP	EOI
185	28	3	-0.002	50.985	83.311	30.853	#HP	EOI
186	28	2	0.309	49.427	83.702	29.375	#C1P	EOI
187	28	3	-0.002	49.114	84.563	28.764	#HP	EOI
188	28	3	-0.002	48.516	83.305	29.841	#HP	EOI
189	28	4	-0.61	49.978	82.769	28.432	#O1P	EOI
190	29	2	0.309	49.71	83.121	33.253	#C1P	EOI
191	29	3	-0.002	50.607	83.443	33.813	#HP	EOI
192	29	3	-0.002	50.039	82.357	32.526	#HP	EOI
193	29	2	0.309	49.077	84.313	32.508	#C1P	EOI
194	29	3	-0.002	48.829	85.105	33.236	#HP	EOI
195	29	3	-0.002	48.118	83.996	32.077	#HP	EOI
196	29	4	-0.61	49.87	84.964	31.516	#O1P	EOI
197	30	2	0.309	47.989	80.692	35.481	#C1P	EOI
198	30	3	-0.002	47.832	81.43	36.292	#HP	EOI
199	30	3	-0.002	48.345	79.762	35.959	#HP	EOI
200	30	2	0.309	49.049	81.229	34.52	#C1P	EOI
201	30	3	-0.002	49.091	80.565	33.634	#HP	EOI
202	30	3	-0.002	50.048	81.184	34.995	#HP	EOI
203	30	4	-0.61	48.738	82.567	34.138	#O1P	EOI
204	31	2	0.309	44.375	80.414	35.231	#C1P	EOI
205	31	3	-0.002	44.459	81.515	35.172	#HP	EOI
206	31	3	-0.002	43.642	80.192	36.026	#HP	EOI
207	31	2	0.309	45.753	79.873	35.611	#C1P	EOI
208	31	3	-0.002	45.779	78.776	35.502	#HP	EOI
209	31	3	-0.002	45.939	80.092	36.676	#HP	EOI
210	31	4	-0.61	46.768	80.452	34.784	#O1P	EOI
211	32	2	0.309	42.354	79.995	32.144	#C1P	EOI
212	32	3	-0.002	43.219	79.946	31.461	#HP	EOI
213	32	3	-0.002	41.624	80.685	31.684	#HP	EOI
214	32	2	0.309	42.811	80.566	33.489	#C1P	EOI
215	32	3	-0.002	41.97	80.547	34.207	#HP	EOI
216	32	3	-0.002	43.075	81.626	33.333	#HP	EOI
217	32	4	-0.61	43.935	79.862	33.996	#O1P	EOI
218	33	2	0.309	40.747	77.202	33.772	#C1P	EOI
219	33	3	-0.002	40.498	77.5	34.797	#HP	EOI
220	33	3	-0.002	41.817	76.963	33.802	#HP	EOI
221	33	2	0.309	40.583	78.414	32.819	#C1P	EOI
222	33	3	-0.002	40.239	79.307	33.362	#HP	EOI
223	33	3	-0.002	39.827	78.229	32.047	#HP	EOI
224	33	4	-0.61	41.842	78.659	32.174	#O1P	EOI
225	34	2	0.309	40.859	73.621	33.872	#C1P	EOI
226	34	3	-0.002	41.141	73.103	34.801	#HP	EOI
227	34	3	-0.002	41.8	73.823	33.352	#HP	EOI
228	34	2	0.309	40.131	74.923	34.29	#C1P	EOI
229	34	3	-0.002	40.598	75.278	35.212	#HP	EOI
230	34	3	-0.002	39.117	74.615	34.57	#HP	EOI
231	34	4	-0.61	40.003	76.039	33.378	#O1P	EOI
232	35	2	0.309	41.564	71.414	31.595	#C1P	EOI
233	35	3	-0.002	41.236	70.375	31.794	#HP	EOI
234	35	3	-0.002	42.355	71.639	32.326	#HP	EOI
235	35	2	0.309	40.394	72.402	31.803	#C1P	EOI
236	35	3	-0.002	39.477	72	31.347	#HP	EOI
237	35	3	-0.002	40.641	73.333	31.28	#HP	EOI
238	35	4	-0.61	40.041	72.672	33.166	#O1P	EOI
239	36	2	0.309	40.813	72.272	28.413	#C1P	EOI
240	36	3	-0.002	41.522	73.108	28.329	#HP	EOI
241	36	3	-0.002	39.982	72.632	29.033	#HP	EOI
242	36	2	0.309	41.513	71.103	29.144	#C1P	EOI
243	36	3	-0.002	42.282	70.672	28.484	#HP	EOI
244	36	3	-0.002	40.796	70.297	29.373	#HP	EOI
245	36	4	-0.61	42.214	71.538	30.322	#O1P	EOI
246	37	2	0.309	39.983	73.267	25.092	#C1P	EOI
247	37	3	-0.002	39.267	73.035	24.291	#HP	EOI
248	37	3	-0.002	40.904	72.708	24.853	#HP	EOI
249	37	2	0.309	39.435	72.771	26.46	#C1P	EOI
250	37	3	-0.002	38.506	72.198	26.324	#HP	EOI
251	37	3	-0.002	39.157	73.619	27.093	#HP	EOI
252	37	4	-0.61	40.355	71.88	27.118	#O1P	EOI
253	38	2	0.309	42.391	74.845	26.193	#C1P	EOI
254	38	3	-0.002	43.034	74.922	25.303	#HP	EOI
255	38	3	-0.002	42.368	73.773	26.451	#HP	EOI
256	38	2	0.309	40.966	75.352	25.901	#C1P	EOI
257	38	3	-0.002	41.016	76.391	25.537	#HP	EOI
258	38	3	-0.002	40.419	75.397	26.857	#HP	EOI
259	38	4	-0.61	40.195	74.668	24.92	#O1P	EOI
260	39	2	0.309	44.599	73.995	28.07	#C1P	EOI
261	39	3	-0.002	43.697	73.453	28.394	#HP	EOI
262	39	3	-0.002	45.305	73.932	28.918	#HP	EOI
263	39	2	0.309	44.226	75.442	27.696	#C1P	EOI
264	39	3	-0.002	44.927	75.805	26.916	#HP	EOI
265	39	3	-0.002	44.334	76.143	28.539	#HP	EOI
266	39	4	-0.61	42.876	75.629	27.276	#O1P	EOI
267	40	2	0.309	44.397	71.358	25.867	#C1P	EOI
268	40	3	-0.002	44.36	71.962	24.941	#HP	EOI
269	40	3	-0.002	43.387	71.385	26.315	#HP	EOI
270	40	2	0.309	45.409	72.019	26.817	#C1P	EOI
271	40	3	-0.002	46.421	71.906	26.401	#HP	EOI
272	40	3	-0.002	45.399	71.526	27.801	#HP	EOI
273	40	4	-0.61	45.174	73.425	26.899	#O1P	EOI
274	41	2	0.309	43.525	69.806	23.458	#C1P	EOI
275	41	3	-0.002	44.459	69.922	22.878	#HP	EOI
276	41	3	-0.002	43.072	70.813	23.537	#HP	EOI
277	41	2	0.309	43.851	69.275	24.865	#C1P	EOI
278	41	3	-0.002	44.281	68.265	24.772	#HP	EOI
279	41	3	-0.002	42.91	69.173	25.441	#HP	EOI
280	41	4	-0.61	44.816	70.029	25.593	#O1P	EOI
281	42	2	0.309	43.146	69.174	20.367	#C1P	EOI
282	42	3	-0.002	43.011	68.187	19.887	#HP	EOI
283	42	3	-0.002	44.182	69.206	20.735	#HP	EOI
284	42	2	0.309	42.174	69.382	21.56	#C1P	EOI
285	42	3	-0.002	41.222	68.86	21.38	#HP	EOI
286	42	3	-0.002	41.941	70.456	21.63	#HP	EOI
287	42	4	-0.61	42.628	68.897	22.825	#O1P	EOI
288	43	2	0.309	40.626	70.594	19.031	#C1P	EOI
289	43	3	-0.002	40.799	71.227	19.915	#HP	EOI
290	43	3	-0.002	40.076	69.7	19.384	#HP	EOI
291	43	2	0.309	42.015	70.216	18.461	#C1P	EOI
292	43	3	-0.002	42.302	70.988	17.733	#HP	EOI
293	43	3	-0.002	41.985	69.253	17.92	#HP	EOI
294	43	4	-0.61	43.081	70.237	19.414	#O1P	EOI
295	44	2	0.309	38.741	72.985	19.574	#C1P	EOI
296	44	3	-0.002	38.786	73.922	18.995	#HP	EOI
297	44	3	-0.002	39.695	72.939	20.124	#HP	EOI
298	44	2	0.309	38.612	71.776	18.596	#C1P	EOI
299	44	3	-0.002	38.007	72.064	17.72	#HP	EOI
300	44	3	-0.002	38.06	70.95	19.077	#HP	EOI
301	44	4	-0.61	39.858	71.306	18.061	#O1P	EOI
302	45	2	0.309	38.367	71.273	22.037	#C1P	EOI
303	45	3	-0.002	39.161	71.876	22.505	#HP	EOI
304	45	3	-0.002	38.852	70.671	21.254	#HP	EOI
305	45	2	0.309	37.282	72.164	21.396	#C1P	EOI
306	45	3	-0.002	36.73	72.685	22.196	#HP	EOI
307	45	3	-0.002	36.557	71.497	20.893	#HP	EOI
308	45	4	-0.61	37.674	73.207	20.498	#O1P	EOI
309	46	2	0.309	39.049	69.374	24.822	#C1P	EOI
310	46	3	-0.002	39.034	70.431	25.11	#HP	EOI
311	46	3	-0.002	40.105	69.054	24.891	#HP	EOI
312	46	2	0.309	38.463	69.254	23.391	#C1P	EOI
313	46	3	-0.002	37.727	68.434	23.372	#HP	EOI
314	46	3	-0.002	39.213	68.983	22.632	#HP	EOI
315	46	4	-0.61	37.731	70.429	23.003	#O1P	EOI
316	47	2	0.309	36.757	69.816	27.239	#C1P	EOI
317	47	3	-0.002	35.939	69.221	26.799	#HP	EOI
318	47	3	-0.002	36.802	70.755	26.661	#HP	EOI
319	47	2	0.309	38.067	69.007	27.064	#C1P	EOI
320	47	3	-0.002	37.993	68.076	27.648	#HP	EOI
321	47	3	-0.002	38.94	69.558	27.452	#HP	EOI
322	47	4	-0.61	38.254	68.581	25.706	#O1P	EOI
323	48	2	0.309	36.149	72.518	28.9	#C1P	EOI
324	48	3	-0.002	35.068	72.318	28.833	#HP	EOI
325	48	3	-0.002	36.472	72.865	27.903	#HP	EOI
326	48	2	0.309	36.856	71.189	29.275	#C1P	EOI
327	48	3	-0.002	36.668	70.985	30.342	#HP	EOI
328	48	3	-0.002	37.95	71.266	29.156	#HP	EOI
329	48	4	-0.61	36.347	70.039	28.593	#O1P	EOI
330	49	2	0.309	38.023	75.26	29.235	#C1P	EOI
331	49	3	-0.002	37.558	76.2	29.582	#HP	EOI
332	49	3	-0.002	37.661	75.092	28.21	#HP	EOI
333	49	2	0.309	37.586	74.062	30.114	#C1P	EOI
334	49	3	-0.002	37.603	74.322	31.186	#HP	EOI
335	49	3	-0.002	38.326	73.268	29.992	#HP	EOI
336	49	4	-0.61	36.266	73.564	29.872	#O1P	EOI
337	50	2	0.309	41.627	75.71	30.222	#C1P	EOI
338	50	3	-0.002	42.058	76.626	29.784	#HP	EOI
339	50	3	-0.002	41.879	74.88	29.545	#HP	EOI
340	50	2	0.309	40.078	75.816	30.321	#C1P	EOI
341	50	3	-0.002	39.772	76.848	30.556	#HP	EOI
342	50	3	-0.002	39.738	75.194	31.161	#HP	EOI
343	50	4	-0.61	39.444	75.393	29.116	#O1P	EOI
344	51	2	0.309	44.105	75.201	33.061	#C1P	EOI
345	51	3	-0.002	45.196	75.356	33.057	#HP	EOI
346	51	3	-0.002	43.957	74.106	33.151	#HP	EOI
347	51	2	0.309	43.568	75.681	31.696	#C1P	EOI
348	51	3	-0.002	44.149	75.121	30.942	#HP	EOI
349	51	3	-0.002	43.792	76.753	31.547	#HP	EOI
350	51	4	-0.61	42.176	75.452	31.517	#O1P	EOI
351	52	2	0.309	42.947	75.239	36.693	#C1P	EOI
352	52	3	-0.002	43.733	74.605	37.133	#HP	EOI
353	52	3	-0.002	42.29	74.554	36.135	#HP	EOI
354	52	2	0.309	43.566	76.273	35.698	#C1P	EOI
355	52	3	-0.002	44.591	76.582	35.982	#HP	EOI
356	52	3	-0.002	42.951	77.174	35.731	#HP	EOI
357	52	4	-0.61	43.834	75.738	34.382	#O1P	EOI
358	53	2	0.309	39.718	75.686	37.767	#C1P	EOI
359	53	3	-0.002	39.625	75.222	38.761	#HP	EOI
360	53	3	-0.002	39.743	74.854	37.047	#HP	EOI
361	53	2	0.309	41.037	76.511	37.713	#C1P	EOI
362	53	3	-0.002	41.049	77.193	38.575	#HP	EOI
363	53	3	-0.002	41.028	77.153	36.822	#HP	EOI
364	53	4	-0.61	42.276	75.786	37.841	#O1P	EOI
365	54	2	0.309	36.992	75.914	35.715	#C1P	EOI
366	54	3	-0.002	35.956	76.125	36.022	#HP	EOI
367	54	3	-0.002	37.215	74.892	36.059	#HP	EOI
368	54	2	0.309	38	76.892	36.378	#C1P	EOI
369	54	3	-0.002	37.527	77.867	36.573	#HP	EOI
370	54	3	-0.002	38.803	77.087	35.667	#HP	EOI
371	54	4	-0.61	38.518	76.478	37.655	#O1P	EOI
372	55	2	0.309	36.724	78.128	33.169	#C1P	EOI
373	55	3	-0.002	37.433	78.179	32.324	#HP	EOI
374	55	3	-0.002	37.253	78.545	34.041	#HP	EOI
375	55	2	0.309	36.246	76.685	33.472	#C1P	EOI
376	55	3	-0.002	36.132	76.123	32.529	#HP	EOI
377	55	3	-0.002	35.238	76.737	33.913	#HP	EOI
378	55	4	-0.61	37.112	75.881	34.279	#O1P	EOI
379	56	2	0.309	34.664	79.639	35.015	#C1P	EOI
380	56	3	-0.002	35.063	80.275	35.826	#HP	EOI
381	56	3	-0.002	34.947	78.605	35.284	#HP	EOI
382	56	2	0.309	35.306	80.034	33.66	#C1P	EOI
383	56	3	-0.002	36.213	80.654	33.795	#HP	EOI
384	56	3	-0.002	34.595	80.65	33.093	#HP	EOI
385	56	4	-0.61	35.594	78.934	32.793	#O1P	EOI
386	57	2	0.309	32.235	77.655	34.422	#C1P	EOI
387	57	3	-0.002	31.91	77.482	35.461	#HP	EOI
388	57	3	-0.002	33.221	77.176	34.324	#HP	EOI
389	57	2	0.309	32.383	79.174	34.202	#C1P	EOI
390	57	3	-0.002	31.407	79.662	34.362	#HP	EOI
391	57	3	-0.002	32.671	79.392	33.158	#HP	EOI
392	57	4	-0.61	33.254	79.832	35.124	#O1P	EOI
393	58	2	0.309	32.758	76.523	31.628	#C1P	EOI
394	58	3	-0.002	32.883	75.479	31.953	#HP	EOI
395	58	3	-0.002	33.606	77.085	32.053	#HP	EOI
396	58	2	0.309	31.432	77.08	32.199	#C1P	EOI
397	58	3	-0.002	30.587	76.511	31.779	#HP	EOI
398	58	3	-0.002	31.295	78.127	31.873	#HP	EOI
399	58	4	-0.61	31.268	76.979	33.616	#O1P	EOI
400	59	2	0.309	33.784	78.794	29.89	#C1P	EOI
401	59	3	-0.002	34.807	78.388	29.783	#HP	EOI
402	59	3	-0.002	33.649	79.058	30.953	#HP	EOI
403	59	2	0.309	32.746	77.719	29.513	#C1P	EOI
404	59	3	-0.002	32.855	77.459	28.447	#HP	EOI
405	59	3	-0.002	31.73	78.146	29.624	#HP	EOI
406	59	4	-0.61	32.863	76.475	30.205	#O1P	EOI
407	60	2	0.168	35.731	81.248	29.289	#C1P	EOT
408	60	3	0.028	35.948	81.594	28.26	#HP	EOT
409	60	3	0.028	36.183	80.248	29.37	#HP	EOT
410	60	2	0.309	34.204	81.138	29.544	#C1P	EOI
411	60	3	-0.002	33.658	81.952	29.037	#HP	EOI
412	60	3	-0.002	34.013	81.274	30.622	#HP	EOI
413	60	4	-0.61	33.599	79.939	29.056	#O1P	EOI
414	61	2	0.161	36.19	83.423	30.173	#C1P	EOT
415	61	3	0.029	35.136	83.694	30.352	#HP	EOT
416	61	3	0.029	36.496	83.841	29.199	#HP	EOT
417	61	4	-0.472	36.414	82.029	30.263	#O1P	EOT
418	61	3	0.029	36.805	83.882	30.961	#HP	EOT
419	62	2	0.161	42.155	84.252	14.926	#C1P	EOT
420	62	3	0.029	41.297	83.882	14.336	#HP	EOT
421	62	3	0.029	43.067	84.135	14.322	#HP	EOT
422	62	3	0.029	42.006	85.33	15.122	#HP	EOT
423	63	2	0.309	19.095	18.602	19.054	#C1P	EOI
424	63	3	-0.002	18.031	18.895	18.996	#HP	EOI
425	63	3	-0.002	19.677	19.377	18.522	#HP	EOI
426	63	2	0.168	19.281	17.206	18.415	#C1P	EOT
427	63	3	0.028	18.877	16.457	19.118	#HP	EOT
428	63	3	0.028	20.359	16.982	18.311	#HP	EOT
429	63	4	-0.472	18.576	16.983	17.2	#O1P	EOT
430	64	2	0.309	18.027	19.954	21.736	#C1P	EOI
431	64	3	-0.002	17.373	19.069	21.816	#HP	EOI
432	64	3	-0.002	17.597	20.607	20.955	#HP	EOI
433	64	2	0.309	19.451	19.519	21.328	#C1P	EOI
434	64	3	-0.002	19.954	19.12	22.224	#HP	EOI
435	64	3	-0.002	20.036	20.397	20.997	#HP	EOI
436	64	4	-0.61	19.536	18.448	20.394	#O1P	EOI
437	65	2	0.309	15.662	21.069	23.466	#C1P	EOI
438	65	3	-0.002	15.384	21.091	24.532	#HP	EOI
439	65	3	-0.002	15.622	20.009	23.172	#HP	EOI
440	65	2	0.309	17.104	21.615	23.253	#C1P	EOI
441	65	3	-0.002	17.466	22.138	24.154	#HP	EOI
442	65	3	-0.002	17.116	22.372	22.452	#HP	EOI
443	65	4	-0.61	18.091	20.61	23.007	#O1P	EOI
444	66	2	0.309	14.294	20.445	20.725	#C1P	EOI
445	66	3	-0.002	13.221	20.199	20.803	#HP	EOI
446	66	3	-0.002	14.831	19.632	21.232	#HP	EOI
447	66	2	0.309	14.617	21.803	21.401	#C1P	EOI
448	66	3	-0.002	13.855	22.554	21.14	#HP	EOI
449	66	3	-0.002	15.567	22.18	20.984	#HP	EOI
450	66	4	-0.61	14.628	21.82	22.829	#O1P	EOI
451	67	2	0.309	13.807	22.276	18.052	#C1P	EOI
452	67	3	-0.002	14.801	22.635	17.739	#HP	EOI
453	67	3	-0.002	13.573	22.8	18.993	#HP	EOI
454	67	2	0.309	13.89	20.749	18.305	#C1P	EOI
455	67	3	-0.002	14.3	20.253	17.411	#HP	EOI
456	67	3	-0.002	12.888	20.32	18.462	#HP	EOI
457	67	4	-0.61	14.774	20.38	19.375	#O1P	EOI
458	68	2	0.309	10.903	22.464	18.539	#C1P	EOI
459	68	3	-0.002	11.031	23.508	18.868	#HP	EOI
460	68	3	-0.002	11.422	21.835	19.283	#HP	EOI
461	68	2	0.309	11.557	22.302	17.146	#C1P	EOI
462	68	3	-0.002	11.008	22.919	16.416	#HP	EOI
463	68	3	-0.002	11.463	21.257	16.803	#HP	EOI
464	68	4	-0.61	12.919	22.723	17.025	#O1P	EOI
465	69	2	0.309	9.449	19.691	18.784	#C1P	EOI
466	69	3	-0.002	9.362	19.812	19.878	#HP	EOI
467	69	3	-0.002	10.507	19.456	18.565	#HP	EOI
468	69	2	0.309	8.999	20.998	18.097	#C1P	EOI
469	69	3	-0.002	7.906	21.084	18.219	#HP	EOI
470	69	3	-0.002	9.178	20.912	17.008	#HP	EOI
471	69	4	-0.61	9.497	22.228	18.618	#O1P	EOI
472	70	2	0.309	8.26	17.302	20.304	#C1P	EOI
473	70	3	-0.002	7.39	17.957	20.475	#HP	EOI
474	70	3	-0.002	9.092	17.716	20.892	#HP	EOI
475	70	2	0.309	8.66	17.366	18.819	#C1P	EOI
476	70	3	-0.002	7.945	16.777	18.225	#HP	EOI
477	70	3	-0.002	9.658	16.919	18.66	#HP	EOI
478	70	4	-0.61	8.582	18.68	18.282	#O1P	EOI
479	71	2	0.309	8.084	16.564	23.191	#C1P	EOI
480	71	3	-0.002	7.083	16.348	23.595	#HP	EOI
481	71	3	-0.002	8.063	17.612	22.865	#HP	EOI
482	71	2	0.309	8.426	15.614	22.009	#C1P	EOI
483	71	3	-0.002	8.018	14.609	22.204	#HP	EOI
484	71	3	-0.002	9.52	15.489	21.95	#HP	EOI
485	71	4	-0.61	7.912	15.98	20.728	#O1P	EOI
486	72	2	0.309	10.994	17.57	23.249	#C1P	EOI
487	72	3	-0.002	10.487	18.191	22.496	#HP	EOI
488	72	3	-0.002	11.165	16.593	22.776	#HP	EOI
489	72	2	0.309	10.043	17.373	24.459	#C1P	EOI
490	72	3	-0.002	9.618	18.345	24.756	#HP	EOI
491	72	3	-0.002	10.606	17	25.327	#HP	EOI
492	72	4	-0.61	9.005	16.39	24.274	#O1P	EOI
493	73	2	0.309	13.805	16.266	23.528	#C1P	EOI
494	73	3	-0.002	14.752	16.479	23.008	#HP	EOI
495	73	3	-0.002	13.12	15.92	22.74	#HP	EOI
496	73	2	0.309	13.249	17.568	24.195	#C1P	EOI
497	73	3	-0.002	14.052	18.318	24.294	#HP	EOI
498	73	3	-0.002	12.918	17.364	25.226	#HP	EOI
499	73	4	-0.61	12.229	18.259	23.469	#O1P	EOI
500	74	2	0.309	11.954	13.81	24.262	#C1P	EOI
501	74	3	-0.002	12.351	12.886	23.802	#HP	EOI
502	74	3	-0.002	11.563	14.435	23.442	#HP	EOI
503	74	2	0.309	13.021	14.577	25.079	#C1P	EOI
504	74	3	-0.002	13.48	13.875	25.795	#HP	EOI
505	74	3	-0.002	12.477	15.329	25.675	#HP	EOI
506	74	4	-0.61	14.127	15.187	24.414	#O1P	EOI
507	75	2	0.309	9.504	11.501	24.816	#C1P	EOI
508	75	3	-0.002	10.441	11.095	25.224	#HP	EOI
509	75	3	-0.002	9.385	11.05	23.815	#HP	EOI
510	75	2	0.309	9.65	13.046	24.758	#C1P	EOI
511	75	3	-0.002	8.941	13.499	25.465	#HP	EOI
512	75	3	-0.002	9.407	13.46	23.768	#HP	EOI
513	75	4	-0.61	10.928	13.507	25.213	#O1P	EOI
514	76	2	0.309	9.359	9.524	27.252	#C1P	EOI
515	76	3	-0.002	8.988	9.963	28.194	#HP	EOI
516	76	3	-0.002	10.31	10.027	27.026	#HP	EOI
517	76	2	0.309	8.369	9.801	26.098	#C1P	EOI
518	76	3	-0.002	7.332	9.622	26.425	#HP	EOI
519	76	3	-0.002	8.562	9.091	25.279	#HP	EOI
520	76	4	-0.61	8.385	11.155	25.636	#O1P	EOI
521	77	2	0.309	11.202	8.147	29.312	#C1P	EOI
522	77	3	-0.002	10.687	7.478	30.024	#HP	EOI
523	77	3	-0.002	10.835	9.163	29.512	#HP	EOI
524	77	2	0.309	10.879	7.772	27.851	#C1P	EOI
525	77	3	-0.002	10.949	6.682	27.714	#HP	EOI
526	77	3	-0.002	11.641	8.227	27.191	#HP	EOI
527	77	4	-0.61	9.558	8.118	27.422	#O1P	EOI
528	78	2	0.309	14.095	6.471	28.678	#C1P	EOI
529	78	3	-0.002	13.869	7.083	27.785	#HP	EOI
530	78	3	-0.002	13.809	5.431	28.434	#HP	EOI
531	78	2	0.309	13.286	7.004	29.881	#C1P	EOI
532	78	3	-0.002	13.978	7.257	30.697	#HP	EOI
533	78	3	-0.002	12.595	6.253	30.293	#HP	EOI
534	78	4	-0.61	12.602	8.224	29.579	#O1P	EOI
535	79	2	0.309	17.748	5.989	28.284	#C1P	EOI
536	79	3	-0.002	18.044	7.034	28.469	#HP	EOI
537	79	3	-0.002	18.311	5.655	27.397	#HP	EOI
538	79	2	0.309	16.252	5.917	27.974	#C1P	EOI
539	79	3	-0.002	15.945	4.861	27.887	#HP	EOI
540	79	3	-0.002	16.066	6.386	26.992	#HP	EOI
541	79	4	-0.61	15.483	6.554	28.98	#O1P	EOI
542	80	2	0.309	19.708	4.179	30.861	#C1P	EOI
543	80	3	-0.002	20.544	3.46	30.878	#HP	EOI
544	80	3	-0.002	18.849	3.666	31.326	#HP	EOI
545	80	2	0.309	19.332	4.539	29.418	#C1P	EOI
546	80	3	-0.002	19.261	3.62	28.806	#HP	EOI
547	80	3	-0.002	20.119	5.161	28.961	#HP	EOI
548	80	4	-0.61	18.074	5.207	29.433	#O1P	EOI
549	81	2	0.309	21.105	7.4	31.973	#C1P	EOI
550	81	3	-0.002	21.132	7.452	33.075	#HP	EOI
551	81	3	-0.002	20.104	7.752	31.677	#HP	EOI
552	81	2	0.309	21.25	5.929	31.523	#C1P	EOI
553	81	3	-0.002	22.018	5.394	32.11	#HP	EOI
554	81	3	-0.002	21.576	5.889	30.473	#HP	EOI
555	81	4	-0.61	19.974	5.31	31.698	#O1P	EOI
556	82	2	0.309	20.921	8.945	29.363	#C1P	EOI
557	82	3	-0.002	20.396	9.775	29.863	#HP	EOI
558	82	3	-0.002	20.222	8.092	29.328	#HP	EOI
559	82	2	0.309	22.203	8.55	30.134	#C1P	EOI
560	82	3	-0.002	22.938	9.366	30.038	#HP	EOI
561	82	3	-0.002	22.648	7.672	29.629	#HP	EOI
562	82	4	-0.61	22.098	8.326	31.542	#O1P	EOI
563	83	2	0.309	19.023	9.608	26.929	#C1P	EOI
564	83	3	-0.002	19.058	10.711	26.972	#HP	EOI
565	83	3	-0.002	18.44	9.267	27.801	#HP	EOI
566	83	2	0.309	20.439	8.992	26.966	#C1P	EOI
567	83	3	-0.002	20.981	9.307	26.059	#HP	EOI
568	83	3	-0.002	20.339	7.89	26.908	#HP	EOI
569	83	4	-0.61	21.297	9.363	28.047	#O1P	EOI
570	84	2	0.309	16.177	10.343	25.485	#C1P	EOI
571	84	3	-0.002	16.548	10.948	24.642	#HP	EOI
572	84	3	-0.002	16.24	10.97	26.389	#HP	EOI
573	84	2	0.309	17.014	9.056	25.636	#C1P	EOI
574	84	3	-0.002	16.835	8.432	24.745	#HP	EOI
575	84	3	-0.002	16.624	8.495	26.504	#HP	EOI
576	84	4	-0.61	18.435	9.19	25.694	#O1P	EOI
577	85	2	0.309	12.92	9.294	24.023	#C1P	EOI
578	85	3	-0.002	12.256	9.705	24.803	#HP	EOI
579	85	3	-0.002	13.15	8.255	24.317	#HP	EOI
580	85	2	0.309	14.243	10.076	24.018	#C1P	EOI
581	85	3	-0.002	14.074	11.131	23.735	#HP	EOI
582	85	3	-0.002	14.919	9.636	23.261	#HP	EOI
583	85	4	-0.61	14.792	9.995	25.334	#O1P	EOI
584	86	2	0.309	10.188	8.093	23.336	#C1P	EOI
585	86	3	-0.002	9.472	8.874	23.034	#HP	EOI
586	86	3	-0.002	10.448	8.298	24.388	#HP	EOI
587	86	2	0.309	11.465	8.204	22.465	#C1P	EOI
588	86	3	-0.002	11.186	8.289	21.403	#HP	EOI
589	86	3	-0.002	12.073	7.287	22.558	#HP	EOI
590	86	4	-0.61	12.277	9.35	22.746	#O1P	EOI