LAMMPS data file. CGCMM style. atom_style full generated by VMD/TopoTools v1.8 on Wed Mar 11 14:46:29 EDT 2026
 422 atoms
 421 bonds
 780 angles
 891 dihedrals
 0 impropers
 3 atom types
 3 bond types
 5 angle types
 5 dihedral types
 0 improper types
 -53.871666 46.128334  xlo xhi
 -46.377764 53.622236  ylo yhi
 -53.583201 46.416799  zlo zhi

# Pair Coeffs
#
# 1  C1P
# 2  HP
# 3  O1P

# Bond Coeffs
#
# 1  C1P-C1P
# 2  C1P-HP
# 3  C1P-O1P

# Angle Coeffs
#
# 1  C1P-C1P-HP
# 2  C1P-C1P-O1P
# 3  C1P-O1P-C1P
# 4  HP-C1P-HP
# 5  HP-C1P-O1P

# Dihedral Coeffs
#
# 1  C1P-C1P-O1P-C1P
# 2  HP-C1P-C1P-HP
# 3  HP-C1P-C1P-O1P
# 4  HP-C1P-O1P-C1P
# 5  O1P-C1P-C1P-O1P

 Masses

 1 12.011000 # C1P
 2 1.008000 # HP
 3 15.999000 # O1P

 Atoms # full

1 1 1 0.309000 3.973973 0.340483 -8.715867 # C1P EOI
2 1 2 -0.002000 3.511964 -0.559585 -8.271817 # HP EOI
3 1 2 -0.002000 4.622941 -0.000236 -9.543428 # HP EOI
4 1 1 0.168000 4.776801 1.094808 -7.631103 # C1P EOT
5 1 2 0.028000 4.054778 1.603697 -6.969558 # HP EOT
6 1 2 0.028000 5.381804 1.893819 -8.100299 # HP EOT
7 1 3 -0.472000 5.558407 0.284410 -6.761782 # O1P EOT
8 2 1 0.309000 0.969305 -0.119451 -9.673959 # C1P EOI
9 2 2 -0.002000 0.699403 0.060237 -8.618911 # HP EOI
10 2 2 -0.002000 1.393195 -1.136915 -9.733040 # HP EOI
11 2 1 0.309000 2.022119 0.915153 -10.128662 # C1P EOI
12 2 2 -0.002000 1.499963 1.863672 -10.332150 # HP EOI
13 2 2 -0.002000 2.482931 0.593464 -11.081398 # HP EOI
14 2 3 -0.610000 3.005095 1.274043 -9.164142 # O1P EOI
15 3 1 0.309000 -1.754640 -1.655249 -9.447128 # C1P EOI
16 3 2 -0.002000 -2.826216 -1.410731 -9.527349 # HP EOI
17 3 2 -0.002000 -1.395813 -1.119898 -8.553764 # HP EOI
18 3 1 0.309000 -0.974335 -1.160126 -10.700283 # C1P EOI
19 3 2 -0.002000 -1.665015 -0.892889 -11.516145 # HP EOI
20 3 2 -0.002000 -0.342834 -1.968184 -11.105145 # HP EOI
21 3 3 -0.610000 -0.199136 0.023253 -10.490140 # O1P EOI
22 4 1 0.309000 0.120651 -3.264375 -7.531637 # C1P EOI
23 4 2 -0.002000 -0.407061 -3.767282 -6.704127 # HP EOI
24 4 2 -0.002000 0.003520 -2.186322 -7.356742 # HP EOI
25 4 1 0.309000 -0.480999 -3.650415 -8.908537 # C1P EOI
26 4 2 -0.002000 -0.677127 -4.732926 -8.953057 # HP EOI
27 4 2 -0.002000 0.276811 -3.449051 -9.686375 # HP EOI
28 4 3 -0.610000 -1.742016 -3.068057 -9.241683 # O1P EOI
29 5 1 0.309000 2.064507 -5.853412 -8.034274 # C1P EOI
30 5 2 -0.002000 2.751575 -5.569256 -8.847676 # HP EOI
31 5 2 -0.002000 1.068166 -5.955360 -8.494616 # HP EOI
32 5 1 0.309000 2.045694 -4.713986 -6.983422 # C1P EOI
33 5 2 -0.002000 3.077443 -4.496984 -6.663082 # HP EOI
34 5 2 -0.002000 1.501262 -5.021929 -6.076648 # HP EOI
35 5 3 -0.610000 1.539693 -3.465746 -7.480888 # O1P EOI
36 6 1 0.309000 0.298814 -7.652172 -6.501112 # C1P EOI
37 6 2 -0.002000 -0.049499 -8.105155 -7.443389 # HP EOI
38 6 2 -0.002000 -0.056207 -6.606865 -6.506467 # HP EOI
39 6 1 0.309000 1.846154 -7.697438 -6.474136 # C1P EOI
40 6 2 -0.002000 2.174644 -8.747921 -6.444348 # HP EOI
41 6 2 -0.002000 2.221264 -7.226605 -5.547925 # HP EOI
42 6 3 -0.610000 2.522417 -7.135835 -7.602431 # O1P EOI
43 7 1 0.309000 -0.271107 -6.710474 -3.559560 # C1P EOI
44 7 2 -0.002000 -1.292465 -6.394877 -3.837921 # HP EOI
45 7 2 -0.002000 0.427506 -5.964554 -3.982646 # HP EOI
46 7 1 0.309000 -0.009953 -8.123380 -4.122814 # C1P EOI
47 7 2 -0.002000 -0.622104 -8.834712 -3.543583 # HP EOI
48 7 2 -0.002000 1.043698 -8.399322 -3.928850 # HP EOI
49 7 3 -0.610000 -0.380738 -8.376508 -5.476097 # O1P EOI
50 8 1 0.309000 -1.890685 -5.319288 -1.352407 # C1P EOI
51 8 2 -0.002000 -2.508426 -6.232812 -1.351751 # HP EOI
52 8 2 -0.002000 -2.081468 -4.806460 -2.305983 # HP EOI
53 8 1 0.309000 -0.403356 -5.710823 -1.319837 # C1P EOI
54 8 2 -0.002000 -0.136342 -6.039419 -0.303864 # HP EOI
55 8 2 -0.002000 0.239486 -4.843844 -1.559279 # HP EOI
56 8 3 -0.610000 -0.107227 -6.827086 -2.150483 # O1P EOI
57 9 1 0.309000 -4.444153 -3.773870 -1.319248 # C1P EOI
58 9 2 -0.002000 -5.231401 -4.116556 -0.629335 # HP EOI
59 9 2 -0.002000 -4.281019 -4.594599 -2.029067 # HP EOI
60 9 1 0.309000 -3.139182 -3.427288 -0.548663 # C1P EOI
61 9 2 -0.002000 -3.385969 -2.964646 0.421455 # HP EOI
62 9 2 -0.002000 -2.578048 -2.663788 -1.112763 # HP EOI
63 9 3 -0.610000 -2.278259 -4.520807 -0.228975 # O1P EOI
64 10 1 0.309000 -3.290027 -2.514267 -3.880658 # C1P EOI
65 10 2 -0.002000 -2.921249 -3.550398 -3.874543 # HP EOI
66 10 2 -0.002000 -2.686881 -1.970256 -3.140816 # HP EOI
67 10 1 0.309000 -4.768858 -2.505604 -3.413059 # C1P EOI
68 10 2 -0.002000 -5.331199 -3.284207 -3.955477 # HP EOI
69 10 2 -0.002000 -5.241511 -1.546462 -3.666644 # HP EOI
70 10 3 -0.610000 -4.966953 -2.621254 -1.989729 # O1P EOI
71 11 1 0.309000 -2.122319 0.256524 -4.679051 # C1P EOI
72 11 2 -0.002000 -1.256195 0.518800 -5.308310 # HP EOI
73 11 2 -0.002000 -1.695746 -0.288102 -3.823319 # HP EOI
74 11 1 0.309000 -3.107182 -0.665567 -5.472038 # C1P EOI
75 11 2 -0.002000 -2.912662 -0.587946 -6.555230 # HP EOI
76 11 2 -0.002000 -4.145845 -0.325835 -5.339900 # HP EOI
77 11 3 -0.610000 -3.001369 -2.068052 -5.209970 # O1P EOI
78 12 1 0.309000 -3.339136 0.939471 -1.841609 # C1P EOI
79 12 2 -0.002000 -2.650197 1.600728 -1.284185 # HP EOI
80 12 2 -0.002000 -2.858002 -0.051554 -1.895772 # HP EOI
81 12 1 0.309000 -3.662887 1.471408 -3.257721 # C1P EOI
82 12 2 -0.002000 -4.012355 2.514129 -3.165160 # HP EOI
83 12 2 -0.002000 -4.519968 0.880995 -3.624557 # HP EOI
84 12 3 -0.610000 -2.641209 1.521551 -4.253923 # O1P EOI
85 13 1 0.309000 -4.683425 1.065841 1.290744 # C1P EOI
86 13 2 -0.002000 -4.575740 2.100744 0.933873 # HP EOI
87 13 2 -0.002000 -3.802253 0.868291 1.925632 # HP EOI
88 13 1 0.309000 -4.735704 0.144494 0.042621 # C1P EOI
89 13 2 -0.002000 -5.732421 -0.316469 -0.020728 # HP EOI
90 13 2 -0.002000 -4.014529 -0.685512 0.096333 # HP EOI
91 13 3 -0.610000 -4.610792 0.861044 -1.191082 # O1P EOI
92 14 1 0.309000 -6.687272 3.242964 2.344183 # C1P EOI
93 14 2 -0.002000 -7.737368 3.108376 2.031944 # HP EOI
94 14 2 -0.002000 -6.112368 3.441975 1.428110 # HP EOI
95 14 1 0.309000 -6.144059 1.950655 2.994619 # C1P EOI
96 14 2 -0.002000 -6.883195 1.528920 3.695982 # HP EOI
97 14 2 -0.002000 -5.253908 2.196089 3.594647 # HP EOI
98 14 3 -0.610000 -5.876642 0.901490 2.060933 # O1P EOI
99 15 1 0.309000 -7.525468 6.164865 1.803874 # C1P EOI
100 15 2 -0.002000 -8.314600 6.554788 2.471083 # HP EOI
101 15 2 -0.002000 -7.979672 5.356766 1.215469 # HP EOI
102 15 1 0.309000 -6.337395 5.597721 2.607740 # C1P EOI
103 15 2 -0.002000 -6.063634 6.288117 3.421098 # HP EOI
104 15 2 -0.002000 -5.457960 5.527059 1.940148 # HP EOI
105 15 3 -0.610000 -6.592530 4.345328 3.250544 # O1P EOI
106 16 1 0.309000 -5.470551 8.854213 1.436538 # C1P EOI
107 16 2 -0.002000 -4.849893 7.948055 1.309387 # HP EOI
108 16 2 -0.002000 -5.269840 9.236618 2.454546 # HP EOI
109 16 1 0.309000 -6.959679 8.481556 1.265988 # C1P EOI
110 16 2 -0.002000 -7.397269 9.102339 0.469845 # HP EOI
111 16 2 -0.002000 -7.555111 8.687015 2.168927 # HP EOI
112 16 3 -0.610000 -7.135637 7.131241 0.826959 # O1P EOI
113 17 1 0.309000 -3.415944 11.364724 -0.352781 # C1P EOI
114 17 2 -0.002000 -3.561479 10.959858 -1.368436 # HP EOI
115 17 2 -0.002000 -2.340208 11.579498 -0.250757 # HP EOI
116 17 1 0.309000 -3.811216 10.316050 0.688177 # C1P EOI
117 17 2 -0.002000 -3.757012 10.760808 1.696490 # HP EOI
118 17 2 -0.002000 -3.077713 9.491162 0.662092 # HP EOI
119 17 3 -0.610000 -5.118898 9.821692 0.456948 # O1P EOI
120 18 1 0.309000 -4.611094 14.854122 -0.749612 # C1P EOI
121 18 2 -0.002000 -4.168761 15.864490 -0.722428 # HP EOI
122 18 2 -0.002000 -5.354583 14.817905 0.063674 # HP EOI
123 18 1 0.309000 -3.543798 13.787416 -0.474851 # C1P EOI
124 18 2 -0.002000 -2.933189 14.080339 0.399036 # HP EOI
125 18 2 -0.002000 -2.851759 13.707798 -1.329991 # HP EOI
126 18 3 -0.610000 -4.200098 12.550485 -0.212884 # O1P EOI
127 19 1 0.309000 -5.318094 14.143633 -4.293973 # C1P EOI
128 19 2 -0.002000 -6.285511 14.580430 -4.591922 # HP EOI
129 19 2 -0.002000 -5.547128 13.147820 -3.880500 # HP EOI
130 19 1 0.309000 -4.692125 14.998158 -3.169035 # C1P EOI
131 19 2 -0.002000 -4.805046 16.079184 -3.363754 # HP EOI
132 19 2 -0.002000 -3.610880 14.803845 -3.107718 # HP EOI
133 19 3 -0.610000 -5.355628 14.641587 -1.955185 # O1P EOI
134 20 1 0.309000 -3.260506 11.960102 -4.778701 # C1P EOI
135 20 2 -0.002000 -4.031894 11.291633 -5.196288 # HP EOI
136 20 2 -0.002000 -3.451873 12.041982 -3.696407 # HP EOI
137 20 1 0.309000 -3.320226 13.359877 -5.436389 # C1P EOI
138 20 2 -0.002000 -2.992487 13.271463 -6.485082 # HP EOI
139 20 2 -0.002000 -2.575195 14.003797 -4.932849 # HP EOI
140 20 3 -0.610000 -4.588627 14.014444 -5.511634 # O1P EOI
141 21 1 0.309000 -2.037823 9.307292 -3.581734 # C1P EOI
142 21 2 -0.002000 -2.182476 8.638066 -4.448597 # HP EOI
143 21 2 -0.002000 -3.036167 9.506799 -3.157422 # HP EOI
144 21 1 0.309000 -1.362663 10.634226 -3.992874 # C1P EOI
145 21 2 -0.002000 -0.348985 10.410366 -4.364677 # HP EOI
146 21 2 -0.002000 -1.236044 11.254197 -3.083247 # HP EOI
147 21 3 -0.610000 -1.971680 11.395337 -5.038151 # O1P EOI
148 22 1 0.309000 -2.128582 6.401038 -2.074948 # C1P EOI
149 22 2 -0.002000 -1.282445 5.905952 -2.576268 # HP EOI
150 22 2 -0.002000 -2.969253 6.409749 -2.786545 # HP EOI
151 22 1 0.309000 -1.742407 7.831932 -1.645964 # C1P EOI
152 22 2 -0.002000 -0.966172 7.751436 -0.868460 # HP EOI
153 22 2 -0.002000 -2.624885 8.295768 -1.171687 # HP EOI
154 22 3 -0.610000 -1.166028 8.687546 -2.632738 # O1P EOI
155 23 1 0.309000 -2.192665 4.368463 1.041024 # C1P EOI
156 23 2 -0.002000 -3.229406 3.995480 0.966160 # HP EOI
157 23 2 -0.002000 -2.235220 5.305904 1.622573 # HP EOI
158 23 1 0.309000 -1.676326 4.719453 -0.363451 # C1P EOI
159 23 2 -0.002000 -1.617802 3.816250 -0.996920 # HP EOI
160 23 2 -0.002000 -0.652484 5.128042 -0.278453 # HP EOI
161 23 3 -0.610000 -2.583824 5.666588 -0.927485 # O1P EOI
162 24 1 0.309000 -2.688605 3.090806 3.780214 # C1P EOI
163 24 2 -0.002000 -2.831627 2.002492 3.694463 # HP EOI
164 24 2 -0.002000 -3.524566 3.559626 3.234333 # HP EOI
165 24 1 0.309000 -1.353385 3.488434 3.102813 # C1P EOI
166 24 2 -0.002000 -0.548945 2.817338 3.443280 # HP EOI
167 24 2 -0.002000 -1.058762 4.508972 3.404538 # HP EOI
168 24 3 -0.610000 -1.360136 3.392098 1.673917 # O1P EOI
169 25 1 0.309000 -3.642792 5.716666 4.967667 # C1P EOI
170 25 2 -0.002000 -4.671950 5.417302 5.221355 # HP EOI
171 25 2 -0.002000 -3.573231 5.678209 3.866389 # HP EOI
172 25 1 0.309000 -2.660355 4.700903 5.599803 # C1P EOI
173 25 2 -0.002000 -2.828070 4.670895 6.687510 # HP EOI
174 25 2 -0.002000 -1.617495 5.034754 5.454127 # HP EOI
175 25 3 -0.610000 -2.806803 3.341555 5.180629 # O1P EOI
176 26 1 0.309000 -1.981707 7.893511 3.625075 # C1P EOI
177 26 2 -0.002000 -2.816317 8.387111 3.104049 # HP EOI
178 26 2 -0.002000 -1.873108 6.894722 3.179720 # HP EOI
179 26 1 0.309000 -2.316027 7.749586 5.129074 # C1P EOI
180 26 2 -0.002000 -2.446606 8.747181 5.575099 # HP EOI
181 26 2 -0.002000 -1.460369 7.284666 5.652984 # HP EOI
182 26 3 -0.610000 -3.536703 7.067069 5.423440 # O1P EOI
183 27 1 0.309000 -0.797430 10.948046 4.063165 # C1P EOI
184 27 2 -0.002000 0.162917 10.953598 4.603819 # HP EOI
185 27 2 -0.002000 -1.554807 10.644302 4.802588 # HP EOI
186 27 1 0.309000 -0.726050 9.902030 2.924081 # C1P EOI
187 27 2 -0.002000 0.222306 10.018045 2.376503 # HP EOI
188 27 2 -0.002000 -1.528130 10.077592 2.195335 # HP EOI
189 27 3 -0.610000 -0.721703 8.538462 3.374014 # O1P EOI
190 28 1 0.309000 -3.470240 12.455288 4.113281 # C1P EOI
191 28 2 -0.002000 -3.356040 13.012534 5.061052 # HP EOI
192 28 2 -0.002000 -3.522588 11.383099 4.372542 # HP EOI
193 28 1 0.309000 -2.264539 12.709167 3.185087 # C1P EOI
194 28 2 -0.002000 -2.172278 13.793187 3.000033 # HP EOI
195 28 2 -0.002000 -2.468762 12.257344 2.204913 # HP EOI
196 28 3 -0.610000 -0.977659 12.305786 3.653264 # O1P EOI
197 29 1 0.309000 -7.073601 12.732157 3.245189 # C1P EOI
198 29 2 -0.002000 -7.050988 13.836685 3.174345 # HP EOI
199 29 2 -0.002000 -7.983716 12.466961 3.814056 # HP EOI
200 29 1 0.309000 -5.829055 12.256657 3.993421 # C1P EOI
201 29 2 -0.002000 -5.777692 11.152301 3.927881 # HP EOI
202 29 2 -0.002000 -5.916184 12.505580 5.068724 # HP EOI
203 29 3 -0.610000 -4.660378 12.853726 3.436498 # O1P EOI
204 30 1 0.309000 -7.990847 12.666589 -0.269517 # C1P EOI
205 30 2 -0.002000 -7.105499 13.323542 -0.343750 # HP EOI
206 30 2 -0.002000 -8.820428 13.191468 -0.777889 # HP EOI
207 30 1 0.309000 -8.303618 12.492341 1.216476 # C1P EOI
208 30 2 -0.002000 -9.058803 11.701301 1.360215 # HP EOI
209 30 2 -0.002000 -8.745671 13.427752 1.597840 # HP EOI
210 30 3 -0.610000 -7.120203 12.149640 1.944290 # O1P EOI
211 31 1 0.309000 -6.899709 10.219163 -2.840464 # C1P EOI
212 31 2 -0.002000 -6.312799 9.595358 -2.145480 # HP EOI
213 31 2 -0.002000 -6.272074 10.374522 -3.735387 # HP EOI
214 31 1 0.309000 -7.183284 11.571330 -2.179847 # C1P EOI
215 31 2 -0.002000 -7.836718 12.175932 -2.835513 # HP EOI
216 31 2 -0.002000 -6.224642 12.112764 -2.096027 # HP EOI
217 31 3 -0.610000 -7.757274 11.409734 -0.890657 # O1P EOI
218 32 1 0.309000 -10.385119 9.795606 -3.679929 # C1P EOI
219 32 2 -0.002000 -10.846702 10.789255 -3.737525 # HP EOI
220 32 2 -0.002000 -10.329288 9.575446 -2.607633 # HP EOI
221 32 1 0.309000 -8.927134 9.864570 -4.201613 # C1P EOI
222 32 2 -0.002000 -8.666874 10.880618 -4.533158 # HP EOI
223 32 2 -0.002000 -8.774062 9.222172 -5.077280 # HP EOI
224 32 3 -0.610000 -8.048250 9.426139 -3.156184 # O1P EOI
225 33 1 0.309000 -13.120708 7.557535 -3.085906 # C1P EOI
226 33 2 -0.002000 -14.014250 7.907825 -2.545409 # HP EOI
227 33 2 -0.002000 -12.426716 7.212635 -2.315410 # HP EOI
228 33 1 0.309000 -12.568115 8.776379 -3.868657 # C1P EOI
229 33 2 -0.002000 -12.753250 9.666205 -3.263286 # HP EOI
230 33 2 -0.002000 -13.212676 8.875654 -4.749444 # HP EOI
231 33 3 -0.610000 -11.198846 8.810213 -4.334712 # O1P EOI
232 34 1 0.309000 -13.226189 4.346685 -2.611651 # C1P EOI
233 34 2 -0.002000 -14.208564 3.856612 -2.751211 # HP EOI
234 34 2 -0.002000 -13.314814 4.981347 -1.717232 # HP EOI
235 34 1 0.309000 -12.885501 5.238823 -3.826550 # C1P EOI
236 34 2 -0.002000 -13.128549 4.710916 -4.760792 # HP EOI
237 34 2 -0.002000 -11.804660 5.418912 -3.821600 # HP EOI
238 34 3 -0.610000 -13.599881 6.478823 -3.907921 # O1P EOI
239 35 1 0.309000 -10.811478 2.540538 -4.139024 # C1P EOI
240 35 2 -0.002000 -9.960346 2.955432 -3.578757 # HP EOI
241 35 2 -0.002000 -11.115770 3.313917 -4.854662 # HP EOI
242 35 1 0.309000 -11.973042 2.285650 -3.151856 # C1P EOI
243 35 2 -0.002000 -11.711642 1.442486 -2.494835 # HP EOI
244 35 2 -0.002000 -12.892110 2.002158 -3.691467 # HP EOI
245 35 3 -0.610000 -12.198575 3.403127 -2.273869 # O1P EOI
246 36 1 0.309000 -8.225505 0.723796 -5.790408 # C1P EOI
247 36 2 -0.002000 -8.080568 0.025933 -6.626631 # HP EOI
248 36 2 -0.002000 -8.281980 0.104660 -4.878949 # HP EOI
249 36 1 0.309000 -9.567199 1.491552 -5.960299 # C1P EOI
250 36 2 -0.002000 -10.137630 1.098222 -6.814251 # HP EOI
251 36 2 -0.002000 -9.380680 2.543164 -6.202394 # HP EOI
252 36 3 -0.610000 -10.422745 1.341902 -4.811920 # O1P EOI
253 37 1 0.309000 -7.135625 2.374323 -3.426152 # C1P EOI
254 37 2 -0.002000 -6.380709 1.693409 -3.006803 # HP EOI
255 37 2 -0.002000 -8.107798 1.883428 -3.253516 # HP EOI
256 37 1 0.309000 -6.914355 2.599352 -4.934269 # C1P EOI
257 37 2 -0.002000 -5.894804 2.985508 -5.099487 # HP EOI
258 37 2 -0.002000 -7.594659 3.401296 -5.261982 # HP EOI
259 37 3 -0.610000 -7.013700 1.476613 -5.803540 # O1P EOI
260 38 1 0.309000 -8.400209 3.069777 -0.773013 # C1P EOI
261 38 2 -0.002000 -9.222075 3.042887 -1.505327 # HP EOI
262 38 2 -0.002000 -8.798124 3.615105 0.102126 # HP EOI
263 38 1 0.309000 -7.167680 3.748196 -1.402232 # C1P EOI
264 38 2 -0.002000 -6.251044 3.329149 -0.940431 # HP EOI
265 38 2 -0.002000 -7.129481 4.831428 -1.205727 # HP EOI
266 38 3 -0.610000 -7.091534 3.661859 -2.824211 # O1P EOI
267 39 1 0.309000 -9.089667 -0.285997 -1.103592 # C1P EOI
268 39 2 -0.002000 -8.075961 -0.599361 -1.418947 # HP EOI
269 39 2 -0.002000 -9.584351 0.157107 -1.987818 # HP EOI
270 39 1 0.309000 -8.932129 0.776687 -0.005375 # C1P EOI
271 39 2 -0.002000 -8.522332 0.301601 0.899272 # HP EOI
272 39 2 -0.002000 -9.908018 1.208916 0.263417 # HP EOI
273 39 3 -0.610000 -7.977402 1.764109 -0.396461 # O1P EOI
274 40 1 0.309000 -8.994881 -3.043833 -2.269289 # C1P EOI
275 40 2 -0.002000 -8.329716 -3.488656 -1.506357 # HP EOI
276 40 2 -0.002000 -8.391015 -2.297541 -2.820462 # HP EOI
277 40 1 0.309000 -10.179098 -2.342541 -1.580196 # C1P EOI
278 40 2 -0.002000 -10.781210 -3.099933 -1.053451 # HP EOI
279 40 2 -0.002000 -10.832226 -1.891389 -2.352282 # HP EOI
280 40 3 -0.610000 -9.825463 -1.385235 -0.586082 # O1P EOI
281 41 1 0.309000 -7.671031 -5.770793 -3.223059 # C1P EOI
282 41 2 -0.002000 -8.153594 -6.760121 -3.330121 # HP EOI
283 41 2 -0.002000 -7.625109 -5.557477 -2.145026 # HP EOI
284 41 1 0.309000 -8.475468 -4.647408 -3.931899 # C1P EOI
285 41 2 -0.002000 -8.985058 -5.039711 -4.825215 # HP EOI
286 41 2 -0.002000 -7.762913 -3.882779 -4.282115 # HP EOI
287 41 3 -0.610000 -9.507065 -4.034731 -3.156177 # O1P EOI
288 42 1 0.309000 -6.382046 -5.660930 -6.134904 # C1P EOI
289 42 2 -0.002000 -6.404357 -4.595734 -5.857923 # HP EOI
290 42 2 -0.002000 -7.402822 -5.922074 -6.475161 # HP EOI
291 42 1 0.309000 -5.987829 -6.455017 -4.866403 # C1P EOI
292 42 2 -0.002000 -4.891813 -6.536976 -4.845560 # HP EOI
293 42 2 -0.002000 -6.389901 -7.484318 -4.886707 # HP EOI
294 42 3 -0.610000 -6.300675 -5.806194 -3.629548 # O1P EOI
295 43 1 0.309000 -5.358744 -3.550742 -8.150873 # C1P EOI
296 43 2 -0.002000 -4.287388 -3.392383 -8.354443 # HP EOI
297 43 2 -0.002000 -5.502545 -3.241995 -7.103143 # HP EOI
298 43 1 0.309000 -5.703249 -5.062042 -8.331391 # C1P EOI
299 43 2 -0.002000 -5.094478 -5.492304 -9.143705 # HP EOI
300 43 2 -0.002000 -6.751752 -5.181319 -8.653799 # HP EOI
301 43 3 -0.610000 -5.434197 -5.876107 -7.181470 # O1P EOI
302 44 1 0.309000 -8.246049 -2.746510 -7.758085 # C1P EOI
303 44 2 -0.002000 -7.889124 -2.069684 -6.966133 # HP EOI
304 44 2 -0.002000 -8.105651 -3.771491 -7.379750 # HP EOI
305 44 1 0.309000 -7.439949 -2.570244 -9.061975 # C1P EOI
306 44 2 -0.002000 -7.667857 -1.580263 -9.489934 # HP EOI
307 44 2 -0.002000 -7.808123 -3.320510 -9.785993 # HP EOI
308 44 3 -0.610000 -6.009716 -2.615299 -9.011876 # O1P EOI
309 45 1 0.309000 -11.219585 -1.907646 -6.248135 # C1P EOI
310 45 2 -0.002000 -10.601777 -1.007241 -6.336784 # HP EOI
311 45 2 -0.002000 -11.252913 -2.149522 -5.170495 # HP EOI
312 45 1 0.309000 -10.575292 -3.024423 -7.110413 # C1P EOI
313 45 2 -0.002000 -11.357170 -3.504412 -7.720026 # HP EOI
314 45 2 -0.002000 -10.136413 -3.838586 -6.514266 # HP EOI
315 45 3 -0.610000 -9.624933 -2.502106 -8.053927 # O1P EOI
316 46 1 0.309000 -12.910925 0.409160 -8.000233 # C1P EOI
317 46 2 -0.002000 -13.284672 -0.239764 -8.808896 # HP EOI
318 46 2 -0.002000 -11.837790 0.569232 -8.202522 # HP EOI
319 46 1 0.309000 -13.101549 -0.354736 -6.665028 # C1P EOI
320 46 2 -0.002000 -14.179208 -0.503855 -6.490028 # HP EOI
321 46 2 -0.002000 -12.716483 0.221015 -5.807639 # HP EOI
322 46 3 -0.610000 -12.548265 -1.678121 -6.723385 # O1P EOI
323 47 1 0.309000 -12.033393 3.462062 -8.577526 # C1P EOI
324 47 2 -0.002000 -12.400276 3.374292 -9.613407 # HP EOI
325 47 2 -0.002000 -11.084400 2.899516 -8.527486 # HP EOI
326 47 1 0.309000 -13.097325 2.833019 -7.640536 # C1P EOI
327 47 2 -0.002000 -13.948379 3.529411 -7.565068 # HP EOI
328 47 2 -0.002000 -12.706410 2.700278 -6.617606 # HP EOI
329 47 3 -0.610000 -13.668210 1.617456 -8.131768 # O1P EOI
330 48 1 0.309000 -9.723261 5.323542 -7.047103 # C1P EOI
331 48 2 -0.002000 -9.337240 6.231886 -7.544165 # HP EOI
332 48 2 -0.002000 -9.308947 4.466461 -7.597539 # HP EOI
333 48 1 0.309000 -11.268986 5.258538 -7.125366 # C1P EOI
334 48 2 -0.002000 -11.724014 6.239801 -6.910306 # HP EOI
335 48 2 -0.002000 -11.617191 4.591643 -6.332063 # HP EOI
336 48 3 -0.610000 -11.809672 4.865445 -8.390103 # O1P EOI
337 49 1 0.309000 -9.130319 6.061120 -3.405035 # C1P EOI
338 49 2 -0.002000 -8.068037 6.281259 -3.200703 # HP EOI
339 49 2 -0.002000 -9.281582 4.990701 -3.199624 # HP EOI
340 49 1 0.309000 -9.478792 6.335039 -4.895712 # C1P EOI
341 49 2 -0.002000 -8.917180 7.203907 -5.275250 # HP EOI
342 49 2 -0.002000 -10.543368 6.601512 -4.961785 # HP EOI
343 49 3 -0.610000 -9.211847 5.198690 -5.714892 # O1P EOI
344 50 1 0.309000 -10.660521 7.685184 -0.326456 # C1P EOI
345 50 2 -0.002000 -10.281584 7.690485 0.709049 # HP EOI
346 50 2 -0.002000 -11.576955 7.061193 -0.307589 # HP EOI
347 50 1 0.309000 -9.590853 7.000047 -1.203303 # C1P EOI
348 50 2 -0.002000 -9.415319 6.016570 -0.732301 # HP EOI
349 50 2 -0.002000 -8.639099 7.557652 -1.158435 # HP EOI
350 50 3 -0.610000 -9.986249 6.833962 -2.559038 # O1P EOI
351 51 1 0.309000 -13.129974 10.570292 -0.663817 # C1P EOI
352 51 2 -0.002000 -13.689898 10.429663 0.274188 # HP EOI
353 51 2 -0.002000 -13.462063 9.760472 -1.331523 # HP EOI
354 51 1 0.309000 -11.593564 10.426164 -0.415076 # C1P EOI
355 51 2 -0.002000 -11.290305 10.755242 0.598122 # HP EOI
356 51 2 -0.002000 -11.079707 11.082661 -1.120239 # HP EOI
357 51 3 -0.610000 -11.127876 9.057738 -0.370512 # O1P EOI
358 52 1 0.309000 -14.217943 11.946992 -3.613865 # C1P EOI
359 52 2 -0.002000 -15.198303 12.412294 -3.428764 # HP EOI
360 52 2 -0.002000 -14.398915 10.861493 -3.638433 # HP EOI
361 52 1 0.309000 -13.248367 12.325021 -2.456412 # C1P EOI
362 52 2 -0.002000 -13.259402 13.419288 -2.346059 # HP EOI
363 52 2 -0.002000 -12.220845 12.060585 -2.741367 # HP EOI
364 52 3 -0.610000 -13.579196 11.851772 -1.136082 # O1P EOI
365 53 1 0.309000 -13.438768 10.761827 -6.726488 # C1P EOI
366 53 2 -0.002000 -13.714353 11.218107 -7.689039 # HP EOI
367 53 2 -0.002000 -14.366835 10.347277 -6.302817 # HP EOI
368 53 1 0.309000 -12.867187 11.810796 -5.733351 # C1P EOI
369 53 2 -0.002000 -12.363153 12.625682 -6.274697 # HP EOI
370 53 2 -0.002000 -12.093739 11.326850 -5.135715 # HP EOI
371 53 3 -0.610000 -13.837186 12.471653 -4.902416 # O1P EOI
372 54 1 0.309000 -10.275408 10.271997 -7.824438 # C1P EOI
373 54 2 -0.002000 -9.551003 9.602148 -7.326948 # HP EOI
374 54 2 -0.002000 -10.368348 11.158561 -7.177252 # HP EOI
375 54 1 0.309000 -11.662876 9.613774 -8.033538 # C1P EOI
376 54 2 -0.002000 -11.536977 8.544362 -8.274711 # HP EOI
377 54 2 -0.002000 -12.133094 10.067557 -8.920177 # HP EOI
378 54 3 -0.610000 -12.557243 9.637657 -6.916608 # O1P EOI
379 55 1 0.309000 -10.754793 12.822217 -9.612527 # C1P EOI
380 55 2 -0.002000 -10.675950 13.813562 -9.133341 # HP EOI
381 55 2 -0.002000 -11.631577 12.336781 -9.147485 # HP EOI
382 55 1 0.309000 -9.474775 11.991479 -9.335999 # C1P EOI
383 55 2 -0.002000 -8.874137 12.415814 -8.509964 # HP EOI
384 55 2 -0.002000 -8.831525 12.016422 -10.227023 # HP EOI
385 55 3 -0.610000 -9.706103 10.599602 -9.103086 # O1P EOI
386 56 1 0.309000 -12.466866 11.298595 -11.834450 # C1P EOI
387 56 2 -0.002000 -13.310268 12.004809 -11.901507 # HP EOI
388 56 2 -0.002000 -12.533865 10.832630 -10.838539 # HP EOI
389 56 1 0.309000 -11.150817 12.097346 -11.936055 # C1P EOI
390 56 2 -0.002000 -11.112531 12.613878 -12.909472 # HP EOI
391 56 2 -0.002000 -10.278865 11.417924 -11.911635 # HP EOI
392 56 3 -0.610000 -11.010545 13.147781 -10.977718 # O1P EOI
393 57 1 0.309000 -11.487385 8.400799 -11.787464 # C1P EOI
394 57 2 -0.002000 -12.444189 7.965057 -11.460954 # HP EOI
395 57 2 -0.002000 -11.120960 9.013746 -10.947275 # HP EOI
396 57 1 0.309000 -11.731707 9.305383 -13.018857 # C1P EOI
397 57 2 -0.002000 -12.104671 8.690651 -13.853912 # HP EOI
398 57 2 -0.002000 -10.774698 9.741533 -13.357199 # HP EOI
399 57 3 -0.610000 -12.714236 10.331640 -12.857325 # O1P EOI
400 58 1 0.309000 -8.465803 8.452834 -11.464643 # C1P EOI
401 58 2 -0.002000 -8.463624 8.024155 -10.446248 # HP EOI
402 58 2 -0.002000 -8.949839 9.442744 -11.398837 # HP EOI
403 58 1 0.309000 -9.293766 7.562027 -12.412407 # C1P EOI
404 58 2 -0.002000 -8.812148 6.575030 -12.503965 # HP EOI
405 58 2 -0.002000 -9.280934 8.007313 -13.425908 # HP EOI
406 58 3 -0.610000 -10.627764 7.277991 -11.987920 # O1P EOI
407 59 1 0.168000 -5.784071 9.410732 -10.029080 # C1P EOT
408 59 2 0.028000 -4.842288 8.832846 -10.087029 # HP EOT
409 59 2 0.028000 -6.480986 8.791455 -9.444981 # HP EOT
410 59 1 0.309000 -6.385890 9.663132 -11.437194 # C1P EOI
411 59 2 -0.002000 -5.592002 9.846680 -12.180503 # HP EOI
412 59 2 -0.002000 -6.989162 10.587273 -11.406399 # HP EOI
413 59 3 -0.610000 -7.137375 8.570891 -11.973199 # O1P EOI
414 60 1 0.161000 -4.574538 11.444431 -9.674631 # C1P EOT
415 60 2 0.029000 -4.730725 11.844333 -10.690747 # HP EOT
416 60 2 0.029000 -3.590583 10.946649 -9.644416 # HP EOT
417 60 3 -0.472000 -5.628107 10.597362 -9.257792 # O1P EOT
418 60 2 0.029000 -4.563925 12.287880 -8.968700 # HP EOT
419 61 1 0.161000 6.797453 -0.124829 -7.314456 # C1P EOT
420 61 2 0.029000 6.674985 -0.738822 -8.223598 # HP EOT
421 61 2 0.029000 7.294505 -0.736084 -6.546663 # HP EOT
422 61 2 0.029000 7.454971 0.729815 -7.555266 # HP EOT

 Bonds

1 3 1 14
2 1 1 4
3 2 1 3
4 2 1 2
5 2 4 6
6 3 4 7
7 2 4 5
8 3 7 419
9 2 8 9
10 2 8 10
11 1 8 11
12 3 8 21
13 3 11 14
14 2 11 12
15 2 11 13
16 3 15 28
17 2 15 17
18 2 15 16
19 1 15 18
20 2 18 19
21 3 18 21
22 2 18 20
23 1 22 25
24 2 22 23
25 2 22 24
26 3 22 35
27 2 25 26
28 2 25 27
29 3 25 28
30 3 29 42
31 1 29 32
32 2 29 30
33 2 29 31
34 3 32 35
35 2 32 33
36 2 32 34
37 2 36 37
38 3 36 49
39 1 36 39
40 2 36 38
41 3 39 42
42 2 39 40
43 2 39 41
44 1 43 46
45 2 43 45
46 3 43 56
47 2 43 44
48 2 46 47
49 2 46 48
50 3 46 49
51 2 50 51
52 1 50 53
53 2 50 52
54 3 50 63
55 3 53 56
56 2 53 55
57 2 53 54
58 2 57 59
59 3 57 70
60 2 57 58
61 1 57 60
62 2 60 61
63 2 60 62
64 3 60 63
65 2 64 65
66 2 64 66
67 1 64 67
68 3 64 77
69 2 67 68
70 2 67 69
71 3 67 70
72 2 71 73
73 3 71 84
74 1 71 74
75 2 71 72
76 3 74 77
77 2 74 75
78 2 74 76
79 2 78 80
80 2 78 79
81 3 78 91
82 1 78 81
83 3 81 84
84 2 81 82
85 2 81 83
86 3 85 98
87 2 85 87
88 2 85 86
89 1 85 88
90 2 88 89
91 2 88 90
92 3 88 91
93 2 92 93
94 2 92 94
95 3 92 105
96 1 92 95
97 2 95 97
98 2 95 96
99 3 95 98
100 2 99 101
101 3 99 112
102 1 99 102
103 2 99 100
104 3 102 105
105 2 102 103
106 2 102 104
107 2 106 107
108 2 106 108
109 1 106 109
110 3 106 119
111 3 109 112
112 2 109 111
113 2 109 110
114 3 113 126
115 2 113 115
116 1 113 116
117 2 113 114
118 2 116 117
119 2 116 118
120 3 116 119
121 2 120 122
122 2 120 121
123 1 120 123
124 3 120 133
125 3 123 126
126 2 123 124
127 2 123 125
128 2 127 129
129 1 127 130
130 2 127 128
131 3 127 140
132 2 130 131
133 2 130 132
134 3 130 133
135 3 134 147
136 2 134 135
137 1 134 137
138 2 134 136
139 2 137 138
140 2 137 139
141 3 137 140
142 2 141 142
143 1 141 144
144 3 141 154
145 2 141 143
146 3 144 147
147 2 144 145
148 2 144 146
149 2 148 149
150 1 148 151
151 3 148 161
152 2 148 150
153 3 151 154
154 2 151 152
155 2 151 153
156 1 155 158
157 3 155 168
158 2 155 157
159 2 155 156
160 2 158 159
161 2 158 160
162 3 158 161
163 2 162 163
164 2 162 164
165 1 162 165
166 3 162 175
167 2 165 166
168 2 165 167
169 3 165 168
170 1 169 172
171 2 169 170
172 3 169 182
173 2 169 171
174 2 172 174
175 2 172 173
176 3 172 175
177 2 176 178
178 3 176 189
179 1 176 179
180 2 176 177
181 2 179 181
182 3 179 182
183 2 179 180
184 3 183 196
185 1 183 186
186 2 183 184
187 2 183 185
188 2 186 188
189 3 186 189
190 2 186 187
191 1 190 193
192 2 190 192
193 2 190 191
194 3 190 203
195 3 193 196
196 2 193 194
197 2 193 195
198 2 197 199
199 1 197 200
200 2 197 198
201 3 197 210
202 2 200 201
203 3 200 203
204 2 200 202
205 3 204 217
206 2 204 205
207 1 204 207
208 2 204 206
209 2 207 208
210 3 207 210
211 2 207 209
212 2 211 212
213 1 211 214
214 2 211 213
215 3 211 224
216 2 214 215
217 2 214 216
218 3 214 217
219 3 218 231
220 2 218 219
221 1 218 221
222 2 218 220
223 2 221 223
224 2 221 222
225 3 221 224
226 3 225 238
227 1 225 228
228 2 225 226
229 2 225 227
230 2 228 230
231 3 228 231
232 2 228 229
233 2 232 233
234 1 232 235
235 3 232 245
236 2 232 234
237 2 235 236
238 2 235 237
239 3 235 238
240 2 239 240
241 1 239 242
242 2 239 241
243 3 239 252
244 2 242 244
245 3 242 245
246 2 242 243
247 2 246 247
248 2 246 248
249 1 246 249
250 3 246 259
251 2 249 251
252 3 249 252
253 2 249 250
254 1 253 256
255 2 253 255
256 3 253 266
257 2 253 254
258 3 256 259
259 2 256 258
260 2 256 257
261 2 260 262
262 3 260 273
263 1 260 263
264 2 260 261
265 3 263 266
266 2 263 264
267 2 263 265
268 2 267 268
269 2 267 269
270 1 267 270
271 3 267 280
272 3 270 273
273 2 270 271
274 2 270 272
275 2 274 276
276 1 274 277
277 3 274 287
278 2 274 275
279 2 277 279
280 2 277 278
281 3 277 280
282 3 281 294
283 2 281 283
284 2 281 282
285 1 281 284
286 2 284 285
287 3 284 287
288 2 284 286
289 2 288 290
290 1 288 291
291 2 288 289
292 3 288 301
293 2 291 293
294 2 291 292
295 3 291 294
296 3 295 308
297 1 295 298
298 2 295 297
299 2 295 296
300 2 298 299
301 2 298 300
302 3 298 301
303 2 302 304
304 3 302 315
305 2 302 303
306 1 302 305
307 2 305 307
308 3 305 308
309 2 305 306
310 1 309 312
311 3 309 322
312 2 309 311
313 2 309 310
314 2 312 313
315 3 312 315
316 2 312 314
317 1 316 319
318 2 316 318
319 3 316 329
320 2 316 317
321 3 319 322
322 2 319 321
323 2 319 320
324 2 323 324
325 2 323 325
326 1 323 326
327 3 323 336
328 3 326 329