LAMMPS data file. CGCMM style. atom_style full generated by VMD/TopoTools v1.8 on Wed Mar 11 17:11:32 EDT 2026
 4 atoms
 3 bonds
 3 angles
 0 dihedrals
 0 impropers
 3 atom types
 2 bond types
 2 angle types
 0 dihedral types
 0 improper types
 -49.987000 50.013000  xlo xhi
 -49.000000 51.000000  ylo yhi
 -50.000000 50.000000  zlo zhi

# Pair Coeffs
#
# 1  C1C
# 2  O1C
# 3  O2C

# Bond Coeffs
#
# 1  C1C-O1C
# 2  C1C-O2C

# Angle Coeffs
#
# 1  O1C-C1C-O2C
# 2  O2C-C1C-O2C

 Masses

 1 12.011000 # C1C
 2 15.999000 # O1C
 3 15.999000 # O2C

 Atoms # full

1 1 2 -1.202450 1.000000 1.000000 0.000000 # O1C COI
2 1 1 1.60735 -0.213000 1.000000 0.000000 # C1C COI
3 1 3 -1.202450 -0.974000 1.000000 1.095000 # O2C COI
4 1 3 -1.202450 -0.974000 1.001000 -1.095000 # O2C COI

 Bonds

1 1 1 2
2 2 2 3
3 2 2 4

 Angles

1 1 1 2 3
2 1 1 2 4
3 2 3 2 4

