LAMMPS data file. CGCMM style. atom_style full generated by VMD/TopoTools v1.8 on Thu Mar 12 16:12:14 EDT 2026
 1 atoms
 0 bonds
 0 angles
 0 dihedrals
 0 impropers
 1 atom types
 0 bond types
 0 angle types
 0 dihedral types
 0 improper types
 -51.916000 48.084000  xlo xhi
 -50.147000 49.853000  ylo yhi
 -48.460000 51.540000  zlo zhi

# Pair Coeffs
#
# 1  LP

 Masses

 1 6.941000 # LP

 Atoms # full

1 1 1 0.000000 -1.916000 -0.147000 1.540000 # LP MOL

