LAMMPS data file. msi2lmp v3.9.11 / 6 Sep 2024 / CGCMM for V27M5_150T

    535 atoms
    561 bonds
   1078 angles
   1633 dihedrals
     32 impropers

   8 atom types
  10 bond types
  20 angle types
  25 dihedral types
   2 improper types

    -9.293549602    22.933869875 xlo xhi
    -3.459606020    36.704826536 ylo yhi
    -3.909541108    52.519963430 zlo zhi

Masses

   1   0.000000 # C_3
   2   0.000000 # H_
   3   0.000000 # O_R
   4   0.000000 # C_2
   5   0.000000 # O_2
   6   0.000000 # S_R
   7   0.000000 # N_2
   8   0.000000 # F_

Pair Coeffs # lj/cut/coul/long

   1   0.0000000000   0.0000000000 # C_3
   2   0.0000000000   0.0000000000 # H_
   3   0.0000000000   0.0000000000 # O_R
   4   0.0000000000   0.0000000000 # C_2
   5   0.0000000000   0.0000000000 # O_2
   6   0.0000000000   0.0000000000 # S_R
   7   0.0000000000   0.0000000000 # N_2
   8   0.0000000000   0.0000000000 # F_

Bond Coeffs # harmonic

   1     0.0000     0.0000 # C_3-C_3
   2     0.0000     0.0000 # C_3-H_
   3     0.0000     0.0000 # C_3-O_R
   4     0.0000     0.0000 # O_R-C_2
   5     0.0000     0.0000 # C_2-O_2
   6     0.0000     0.0000 # C_3-C_2
   7     0.0000     0.0000 # C_3-S_R
   8     0.0000     0.0000 # S_R-N_2
   9     0.0000     0.0000 # O_2-S_R
  10     0.0000     0.0000 # C_3-F_

Angle Coeffs # harmonic

   1     0.0000     0.0000 # C_3-C_3-H_
   2     0.0000     0.0000 # C_3-C_3-C_3
   3     0.0000     0.0000 # H_-C_3-H_
   4     0.0000     0.0000 # C_3-C_3-O_R
   5     0.0000     0.0000 # H_-C_3-O_R
   6     0.0000     0.0000 # C_3-O_R-C_2
   7     0.0000     0.0000 # O_R-C_2-O_R
   8     0.0000     0.0000 # O_R-C_2-O_2
   9     0.0000     0.0000 # C_3-C_3-C_2
  10     0.0000     0.0000 # C_3-C_2-O_R
  11     0.0000     0.0000 # C_3-C_2-O_2
  12     0.0000     0.0000 # C_3-C_3-S_R
  13     0.0000     0.0000 # H_-C_3-S_R
  14     0.0000     0.0000 # C_3-S_R-N_2
  15     0.0000     0.0000 # C_3-S_R-O_2
  16     0.0000     0.0000 # O_2-S_R-N_2
  17     0.0000     0.0000 # O_2-S_R-O_2
  18     0.0000     0.0000 # S_R-N_2-S_R
  19     0.0000     0.0000 # S_R-C_3-F_
  20     0.0000     0.0000 # F_-C_3-F_

Dihedral Coeffs # harmonic

  1     0.0000   0   0 # C_3-C_3-C_3-H_
  2     0.0000   0   0 # H_-C_3-C_3-H_
  3     0.0000   0   0 # C_3-C_3-C_3-C_3
  4     0.0000   0   0 # C_3-C_3-C_3-O_R
  5     0.0000   0   0 # H_-C_3-C_3-O_R
  6     0.0000   0   0 # C_3-C_3-O_R-C_2
  7     0.0000   0   0 # H_-C_3-O_R-C_2
  8     0.0000   0   0 # O_R-C_3-C_3-O_R
  9     0.0000   0   0 # C_3-O_R-C_2-O_R
 10     0.0000   0   0 # C_3-O_R-C_2-O_2
 11     0.0000   0   0 # C_3-C_3-C_3-C_2
 12     0.0000   0   0 # H_-C_3-C_3-C_2
 13     0.0000   0   0 # C_3-C_3-C_2-O_R
 14     0.0000   0   0 # C_3-C_3-C_2-O_2
 15     0.0000   0   0 # C_3-O_R-C_2-C_3
 16     0.0000   0   0 # C_3-C_3-C_3-S_R
 17     0.0000   0   0 # H_-C_3-C_3-S_R
 18     0.0000   0   0 # C_3-C_3-S_R-N_2
 19     0.0000   0   0 # C_3-C_3-S_R-O_2
 20     0.0000   0   0 # H_-C_3-S_R-N_2
 21     0.0000   0   0 # H_-C_3-S_R-O_2
 22     0.0000   0   0 # C_3-S_R-N_2-S_R
 23     0.0000   0   0 # O_2-S_R-N_2-S_R
 24     0.0000   0   0 # F_-C_3-S_R-N_2
 25     0.0000   0   0 # F_-C_3-S_R-O_2

Improper Coeffs # cvff

    1     0.0000   0   0 # O_R-C_2-O_R-O_2
    2     0.0000   0   0 # C_3-C_2-O_R-O_2

Atoms # full

      1      1   1 -0.282100     0.825769586     0.407191709     1.040388922   0   0   0 # C_3
      2      1   1 -0.239400    -0.626599891     0.314183416     1.636137749   0   0   0 # C_3
      3      1   2  0.157300     0.814318083     0.170318511    -0.052340908   0   0   0 # H_
      4      1   2  0.124400     1.378990160    -0.453018230     1.477067537   0   0   0 # H_
      5      1   1  0.147800    -1.791822758     0.828305468     0.728013446   0   0   0 # C_3
      6      1   2  0.152300    -0.835071637    -0.765696477     1.808379946   0   0   0 # H_
      7      1   2  0.140900    -0.651514161     0.760241165     2.652475986   0   0   0 # H_
      8      1   3 -0.589900    -2.872399573    -0.108125179     0.698685665   0   0   0 # O_R
      9      1   1  0.140700    -2.415194108     2.140309322     1.225602605   0   0   0 # C_3
     10      1   2  0.236900    -1.434978292     0.932277424    -0.331280860   0   0   0 # H_
     11      1   4  0.935800    -4.060011856     0.584354471     0.997853445   0   0   0 # C_2
     12      1   3 -0.523500    -3.813633503     1.893757023     1.427965712   0   0   0 # O_R
     13      1   2  0.310500    -2.245753269     2.932908289     0.459114628   0   0   0 # H_
     14      1   2  0.096000    -1.963481286     2.495052373     2.179840394   0   0   0 # H_
     15      1   5 -0.449600    -5.184735403     0.124941975     0.817734328   0   0   0 # O_2
     16      2   1 -0.257800     3.185136663     1.378475162     1.497987842   0   0   0 # C_3
     17      2   1 -0.103000     1.637417947     1.749801891     1.292158251   0   0   0 # C_3
     18      2   2  0.151600     3.589328416     1.007112733     0.526664975   0   0   0 # H_
     19      2   2  0.119400     3.176126562     0.486477377     2.159644887   0   0   0 # H_
     20      2   1  0.138600     1.369595090     2.756646102     0.100012481   0   0   0 # C_3
     21      2   2  0.120900     1.277291239     2.194039354     2.244971515   0   0   0 # H_
     22      2   3 -0.778500     0.142222306     2.492704092    -0.568259948   0   0   0 # O_R
     23      2   1  0.151400     1.199567564     4.230452906     0.492060575   0   0   0 # C_3
     24      2   2  0.250100     2.180571084     2.648080656    -0.677201642   0   0   0 # H_
     25      2   4  0.661300    -0.242393715     3.705398060    -1.132702844   0   0   0 # C_2
     26      2   3 -0.495600     0.342208056     4.798810760    -0.508742028   0   0   0 # O_R
     27      2   2  0.303900     2.158674256     4.758473683     0.557673301   0   0   0 # H_
     28      2   2  0.092300     0.698342037     4.317987718     1.476993743   0   0   0 # H_
     29      2   5 -0.447300    -1.186358008     3.798594658    -1.905054758   0   0   0 # O_2
     30      3   1 -0.260400     5.272778103     1.540263803     3.049284830   0   0   0 # C_3
     31      3   1 -0.112200     4.251044954     2.379646920     2.163118467   0   0   0 # C_3
     32      3   2  0.151600     5.772310298     0.779228136     2.401415525   0   0   0 # H_
     33      3   2  0.123800     4.665454130     0.901007848     3.728981064   0   0   0 # H_
     34      3   1  0.119800     5.038290895     3.198852404     1.091095687   0   0   0 # C_3
     35      3   2  0.118900     3.709868216     3.089980978     2.824032116   0   0   0 # H_
     36      3   3 -0.782400     4.200742901     3.496299051     0.003204211   0   0   0 # O_R
     37      3   1  0.161400     5.581032402     4.571023653     1.535337030   0   0   0 # C_3
     38      3   2  0.249800     5.897327063     2.595402975     0.693474833   0   0   0 # H_
     39      3   4  0.679000     4.619176113     4.725172601    -0.469654959   0   0   0 # C_2
     40      3   3 -0.469800     5.363219937     5.458937529     0.440166715   0   0   0 # O_R
     41      3   2  0.290300     6.665666077     4.508969298     1.761824122   0   0   0 # H_
     42      3   2  0.108900     5.042557958     4.957926756     2.420923378   0   0   0 # H_
     43      3   5 -0.410700     4.164895320     5.181356654    -1.501945722   0   0   0 # O_2
     44      4   1 -0.266700     6.293656146     1.863873789     5.411423857   0   0   0 # C_3
     45      4   1 -0.116900     6.362184681     2.347226640     3.916515371   0   0   0 # C_3
     46      4   2  0.154500     6.476329093     0.764233237     5.395307100   0   0   0 # H_
     47      4   2  0.132200     5.232590045     1.959877356     5.718183700   0   0   0 # H_
     48      4   1  0.140900     7.807317526     2.151249722     3.345266806   0   0   0 # C_3
     49      4   2  0.125900     6.121448088     3.425911380     3.890719744   0   0   0 # H_
     50      4   3 -0.788100     7.815941545     2.294333713     1.933324049   0   0   0 # O_R
     51      4   1  0.119000     8.854591924     3.171838794     3.837213571   0   0   0 # C_3
     52      4   2  0.251700     8.154132738     1.115505126     3.608226561   0   0   0 # H_
     53      4   4  0.749400     8.983896477     2.997193233     1.624714849   0   0   0 # C_2
     54      4   3 -0.481000     9.593727571     3.598874999     2.709627744   0   0   0 # O_R
     55      4   2  0.324500     9.553533335     2.714305467     4.564856895   0   0   0 # H_
     56      4   2  0.094100     8.375225434     4.065387068     4.265959412   0   0   0 # H_
     57      4   5 -0.367400     9.409999880     3.099644436     0.492088937   0   0   0 # O_2
     58      5   1 -0.290200     6.373269247     3.095034429     7.742462096   0   0   0 # C_3
     59      5   1 -0.099200     7.230683181     2.512158849     6.537063508   0   0   0 # C_3
     60      5   2  0.117500     6.526648302     2.467191717     8.647934510   0   0   0 # H_
     61      5   2  0.135000     5.284293304     2.993668964     7.546292611   0   0   0 # H_
     62      5   1  0.140200     8.270902198     1.409149794     7.021729558   0   0   0 # C_3
     63      5   2  0.201600     7.788849330     3.367984049     6.133111166   0   0   0 # H_
     64      5   3 -0.736600     9.045686138     0.938072492     5.932417522   0   0   0 # O_R
     65      5   1  0.178300     9.320303637     1.813507891     8.065598896   0   0   0 # C_3
     66      5   2  0.133100     7.699836492     0.546155342     7.431440084   0   0   0 # H_
     67      5   4  0.562000    10.372432106     0.898662400     6.357289604   0   0   0 # C_2
     68      5   3 -0.548700    10.591388549     1.361900887     7.631943048   0   0   0 # O_R
     69      5   2  0.097700     9.073271046     1.388801201     9.053800362   0   0   0 # H_
     70      5   2  0.397500     9.395030869     2.879090237     8.094182776   0   0   0 # H_
     71      5   5 -0.488200    11.289923170     0.568578358     5.635664137   0   0   0 # O_2
     72      6   1 -0.217400     5.538003591     4.946608375     9.350162291   0   0   0 # C_3
     73      6   1  0.053300     6.565117546     4.616241101     8.151858792   0   0   0 # C_3
     74      6   2  0.165700     4.541825797     5.078645110     8.879425244   0   0   0 # H_
     75      6   2  0.122400     5.389880650     4.029804015     9.942115707   0   0   0 # H_
     76      6   1 -0.327400     7.995867471     4.812525274     8.626985068   0   0   0 # C_3
     77      6   4  0.361500     6.308351193     5.542675913     6.941308551   0   0   0 # C_2
     78      6   2  0.062700     8.282134169     4.059145056     9.379069357   0   0   0 # H_
     79      6   2  0.239300     8.103943027     5.779543890     9.095777381   0   0   0 # H_
     80      6   2  0.161800     8.716164300     4.894298296     7.787326363   0   0   0 # H_
     81      6   3 -0.863700     7.354999042     5.887798926     6.027168790   0   0   0 # O_R
     82      6   5 -0.447200     5.185562090     6.014787574     6.811758720   0   0   0 # O_2
     83      6   1  0.005200     7.048430716     6.990081513     5.160633224   0   0   0 # C_3
     84      6   1 -0.147700     8.201710358     7.127897030     4.167315591   0   0   0 # C_3
     85      6   2  0.219500     6.902589371     7.935729613     5.737607368   0   0   0 # H_
     86      6   2  0.219200     6.075258033     6.807609644     4.640790648   0   0   0 # H_
     87      6   1 -0.071400     7.989176152     8.230679819     3.119834417   0   0   0 # C_3
     88      6   2  0.283500     8.293510431     6.160367926     3.640926657   0   0   0 # H_
     89      6   2  0.279400     9.177001858     7.292284530     4.696367834   0   0   0 # H_
     90      6   6  0.036800     9.232287928     8.026542952     1.794359771   0   0   0 # S_R
     91      6   2  0.193900     8.125596224     9.243857301     3.565204775   0   0   0 # H_
     92      6   2  0.148200     6.979083928     8.154553102     2.657329999   0   0   0 # H_
     93      6   7  0.035400     9.129476013     9.111401490     0.390707242   0   0   0 # N_2
     94      6   5 -0.136800    10.657318324     8.262052683     2.345518787   0   0   0 # O_2
     95      6   5 -0.302000     9.329355553     6.571400010     1.275840843   0   0   0 # O_2
     96      6   6  0.195400     8.758800558     8.379507708    -1.181181008   0   0   0 # S_R
     97      6   1  1.179200     7.832258813     9.479774773    -2.343383442   0   0   0 # C_3
     98      6   5 -0.179100    10.125004656     7.860065210    -1.705402977   0   0   0 # O_2
     99      6   5 -0.197200     7.996817734     7.066697030    -0.857095124   0   0   0 # O_2
    100      6   8 -0.530500     8.640139496    10.499724119    -2.802993889   0   0   0 # F_
    101      6   8 -0.530000     6.749739757    10.034826720    -1.667535307   0   0   0 # F_
    102      6   8 -0.512100     7.328441489     8.745328428    -3.409541108   0   0   0 # F_
    103      7   1 -0.221300     4.372697438     6.485232339    11.148906342   0   0   0 # C_3
    104      7   1  0.010100     5.774243142     6.133862748    10.405034810   0   0   0 # C_3
    105      7   2  0.171600     4.307556361     7.599364240    11.117411067   0   0   0 # H_
    106      7   2  0.138200     3.540995218     6.199630161    10.468547026   0   0   0 # H_
    107      7   1 -0.329100     6.841436354     5.644583137    11.444977228   0   0   0 # C_3
    108      7   4  0.538800     6.278794103     7.420078272     9.627269639   0   0   0 # C_2
    109      7   2  0.143000     7.297823609     4.688546479    11.135668453   0   0   0 # H_
    110      7   2  0.287500     6.435306894     5.418022020    12.438698940   0   0   0 # H_
    111      7   2  0.125100     7.642784493     6.401022947    11.601594316   0   0   0 # H_
    112      7   3 -0.671300     7.633270855     7.856379970     9.696772172   0   0   0 # O_R
    113      7   5 -0.464200     5.501890140     8.039326601     8.908882418   0   0   0 # O_2
    114      7   1  0.027700     8.093315396     8.729189643     8.653141343   0   0   0 # C_3
    115      7   1 -0.254900     9.494006470     9.187288002     9.059687270   0   0   0 # C_3
    116      7   2  0.181800     7.416692563     9.613434233     8.541984449   0   0   0 # H_
    117      7   2  0.249000     8.134422609     8.189479318     7.659734010   0   0   0 # H_
    118      7   1 -0.066800     9.951936827    10.481158177     8.362238103   0   0   0 # C_3
    119      7   2  0.165400    10.216280113     8.369597670     8.829570956   0   0   0 # H_
    120      7   2  0.146700     9.499825007     9.354758556    10.160799772   0   0   0 # H_
    121      7   6 -0.025900    10.257663570    10.239501539     6.561904473   0   0   0 # S_R
    122      7   2  0.164800    10.910899993    10.812779647     8.819353005   0   0   0 # H_
    123      7   2  0.137300     9.212449697    11.301667494     8.507584192   0   0   0 # H_
    124      7   7  0.026600    11.115716654    11.561002929     5.703394530   0   0   0 # N_2
    125      7   5 -0.228900    10.978243462     8.914372577     6.219849959   0   0   0 # O_2
    126      7   5 -0.334100     8.918499480    10.061532252     5.795987587   0   0   0 # O_2
    127      7   6  0.169300    12.881646657    11.427068753     5.430391111   0   0   0 # S_R
    128      7   1  1.187000    14.001252808    12.854300548     5.930054250   0   0   0 # C_3
    129      7   5 -0.201600    13.308684667    10.081585202     6.077161737   0   0   0 # O_2
    130      7   5 -0.222000    12.986240377    11.073682219     3.924786283   0   0   0 # O_2
    131      7   8 -0.552000    13.819064870    13.030930167     7.306638252   0   0   0 # F_
    132      7   8 -0.532000    13.728941966    14.067179058     5.299024996   0   0   0 # F_
    133      7   8 -0.509700    15.341015640    12.561017007     5.695455941   0   0   0 # F_
    134      8   1 -0.264500     2.575769757     6.897963213    12.962626791   0   0   0 # C_3
    135      8   1 -0.127100     3.924289796     6.073090593    12.641295397   0   0   0 # C_3
    136      8   2  0.162600     1.859910179     6.677492420    12.130257090   0   0   0 # H_
    137      8   2  0.137900     2.858323506     7.965829943    12.794425616   0   0   0 # H_
    138      8   1  0.132400     3.749944580     4.513212888    12.831101595   0   0   0 # C_3
    139      8   2  0.151000     4.699239768     6.449307560    13.340976037   0   0   0 # H_
    140      8   3 -0.713200     4.705724663     3.710890477    12.137392514   0   0   0 # O_R
    141      8   1  0.160500     3.881678476     4.025133458    14.282707124   0   0   0 # C_3
    142      8   2  0.247200     2.761203035     4.258652800    12.381549331   0   0   0 # H_
    143      8   4  0.853200     4.914705807     2.577311381    12.910607001   0   0   0 # C_2
    144      8   3 -0.469500     4.495937630     2.729002494    14.216563331   0   0   0 # O_R
    145      8   2  0.287700     2.894273827     3.974720464    14.773933291   0   0   0 # H_
    146      8   2  0.105800     4.526215299     4.701520407    14.881524461   0   0   0 # H_
    147      8   5 -0.444100     5.159974497     1.492945249    12.405208348   0   0   0 # O_2
    148      9   1 -0.269800     1.396017396     8.276729528    14.835122233   0   0   0 # C_3
    149      9   1 -0.120900     1.753767001     6.802365945    14.362177098   0   0   0 # C_3
    150      9   2  0.163100     0.965300766     8.802099790    13.941366985   0   0   0 # H_
    151      9   2  0.133500     2.372451615     8.779909834    14.993091801   0   0   0 # H_
    152      9   1  0.142100     0.453320947     5.943995659    14.144772981   0   0   0 # C_3
    153      9   2  0.125800     2.389936694     6.320706858    15.126254616   0   0   0 # H_
    154      9   3 -0.787000     0.842086407     4.846127805    13.408225676   0   0   0 # O_R
    155      9   1  0.121900    -0.338469972     5.301751953    15.318247672   0   0   0 # C_3
    156      9   2  0.256100    -0.233592760     6.556607879    13.518609460   0   0   0 # H_
    157      9   4  0.748700     0.308937025     3.696915879    13.952944432   0   0   0 # C_2
    158      9   3 -0.478800    -0.463655951     3.895533678    15.034592129   0   0   0 # O_R
    159      9   2  0.330800    -1.349326679     5.745880858    15.335407824   0   0   0 # H_
    160      9   2  0.096000     0.162326305     5.433172543    16.295859167   0   0   0 # H_
    161      9   5 -0.374700     0.496273610     2.615332744    13.442639138   0   0   0 # O_2
    162     10   1 -0.263700     1.121002942     9.573101664    17.127814817   0   0   0 # C_3
    163     10   1 -0.110500     0.469680279     8.510025159    16.124789340   0   0   0 # C_3
    164     10   2  0.156100     0.750765978    10.572526191    16.852901519   0   0   0 # H_
    165     10   2  0.127400     2.204928371     9.638551969    16.906713865   0   0   0 # H_
    166     10   1  0.147600    -0.998354641     8.952550119    15.714569809   0   0   0 # C_3
    167     10   2  0.208700     0.417805625     7.541746350    16.629247614   0   0   0 # H_
    168     10   3 -0.729400    -1.454511219     8.207147665    14.600523428   0   0   0 # O_R
    169     10   1  0.150900    -2.091037985     8.744000193    16.773101729   0   0   0 # C_3
    170     10   2  0.140400    -1.014101621    10.032965214    15.426193337   0   0   0 # H_
    171     10   4  0.553100    -2.790368165     7.908080914    14.856742466   0   0   0 # C_2
    172     10   3 -0.592100    -3.241674232     8.294206339    16.097439532   0   0   0 # O_R
    173     10   2  0.139100    -2.348946190     9.680123621    17.295670401   0   0   0 # H_
    174     10   2  0.402200    -1.817715412     7.920500622    17.444039272   0   0   0 # H_
    175     10   5 -0.500900    -3.390820013     7.103465136    14.177215253   0   0   0 # O_2
    176     11   1 -0.203500     2.003425531    10.483960537    19.448696450   0   0   0 # C_3
    177     11   1  0.019500     1.084139980     9.356991468    18.706448602   0   0   0 # C_3
    178     11   2  0.172900     2.474107756     9.955913904    20.320779167   0   0   0 # H_
    179     11   2  0.132800     2.857810096    10.717065313    18.780975537   0   0   0 # H_
    180     11   1 -0.302700    -0.331518332     9.411527507    19.313696576   0   0   0 # C_3
    181     11   4  0.329000     1.631837099     7.912862583    18.955393442   0   0   0 # C_2
    182     11   2  0.120100    -0.942467188    10.238692205    18.934646188   0   0   0 # H_
    183     11   2  0.285700    -0.241700777     9.528869754    20.402302436   0   0   0 # H_
    184     11   2  0.074300    -0.878494367     8.459964762    19.226445855   0   0   0 # H_
    185     11   3 -0.863400     0.801447971     6.768281133    18.727040985   0   0   0 # O_R
    186     11   5 -0.470600     2.797336779     7.748869223    19.284918750   0   0   0 # O_2
    187     11   1  0.003800     1.394010320     5.466981668    18.910244688   0   0   0 # C_3
    188     11   1 -0.168100     0.287377850     4.412446921    19.177221203   0   0   0 # C_3
    189     11   2  0.190800     2.103375478     5.476158257    19.771544742   0   0   0 # H_
    190     11   2  0.227100     1.985075905     5.213041396    18.007178371   0   0   0 # H_
    191     11   1 -0.077300     0.845246285     3.033498500    19.625191248   0   0   0 # C_3
    192     11   2  0.293200    -0.386426565     4.250880131    18.291954114   0   0   0 # H_
    193     11   2  0.205700    -0.349883605     4.830923300    19.993131070   0   0   0 # H_
    194     11   6  0.033100     1.162143028     1.868237612    18.229669489   0   0   0 # S_R
    195     11   2  0.171200     0.084049043     2.488344484    20.242281981   0   0   0 # H_
    196     11   2  0.124100     1.759983499     3.118538643    20.253000715   0   0   0 # H_
    197     11   7  0.028100     2.619017357     0.858302067    18.347583229   0   0   0 # N_2
    198     11   5 -0.135800    -0.014701755     0.868109919    18.106289737   0   0   0 # O_2
    199     11   5 -0.312000     1.227537887     2.494271374    16.810010911   0   0   0 # O_2
    200     11   6  0.189000     2.546537842    -0.777175954    17.645906892   0   0   0 # S_R
    201     11   1  1.175700     2.142640163    -2.093717922    18.915143040   0   0   0 # C_3
    202     11   5 -0.182300     1.604214744    -0.664764772    16.417102082   0   0   0 # O_2
    203     11   5 -0.208200     3.942042024    -0.904172840    16.976342665   0   0   0 # O_2
    204     11   8 -0.551400     1.723324845    -1.423296257    20.064022561   0   0   0 # F_
    205     11   8 -0.539100     3.233623200    -2.873460370    19.289804682   0   0   0 # F_
    206     11   8 -0.515800     1.109134413    -2.959606020    18.555113688   0   0   0 # F_
    207     12   1 -0.281300     2.795071157    12.538449345    20.806630037   0   0   0 # C_3
    208     12   1 -0.128600     1.514422281    11.890083901    20.076845289   0   0   0 # C_3
    209     12   2  0.160300     3.610951105    12.712371743    20.072249495   0   0   0 # H_
    210     12   2  0.139800     3.204412696    11.740688277    21.469212067   0   0   0 # H_
    211     12   1  0.147900     0.799601071    12.911286369    19.093000064   0   0   0 # C_3
    212     12   2  0.165200     0.795638658    11.613292887    20.881063529   0   0   0 # H_
    213     12   3 -0.724600     0.027548404    12.236033018    18.135137235   0   0   0 # O_R
    214     12   1  0.124800    -0.217534102    13.873511096    19.794216693   0   0   0 # C_3
    215     12   2  0.247700     1.570906332    13.439949867    18.499143621   0   0   0 # H_
    216     12   4  0.934500    -1.257523102    12.742601946    18.191784612   0   0   0 # C_2
    217     12   3 -0.465200    -1.467230606    13.708225548    19.144314357   0   0   0 # O_R
    218     12   2  0.330500     0.044636897    14.958415818    19.746852293   0   0   0 # H_
    219     12   2  0.096400    -0.360303264    13.601665112    20.860130588   0   0   0 # H_
    220     12   5 -0.375500    -2.154189658    12.168195473    17.605284719   0   0   0 # O_2
    221     13   1 -0.259300     3.511002965    13.774240150    22.987830547   0   0   0 # C_3
    222     13   1 -0.108300     2.661985798    13.903843324    21.623786305   0   0   0 # C_3
    223     13   2  0.154700     4.581088310    13.773088141    22.707853225   0   0   0 # H_
    224     13   2  0.128900     3.322696329    12.751692686    23.376149929   0   0   0 # H_
    225     13   1  0.151700     3.078173605    15.187592219    20.773709474   0   0   0 # C_3
    226     13   2  0.209800     1.593815141    13.989458706    21.819253247   0   0   0 # H_
    227     13   3 -0.732300     2.820915643    15.010630208    19.384268412   0   0   0 # O_R
    228     13   1  0.147300     2.348347890    16.510362503    21.138365191   0   0   0 # C_3
    229     13   2  0.135000     4.175600629    15.350814150    20.868241448   0   0   0 # H_
    230     13   4  0.543600     2.066366917    16.091804668    18.966414220   0   0   0 # C_2
    231     13   3 -0.596000     1.716014065    16.978558988    19.958815857   0   0   0 # O_R
    232     13   2  0.130100     3.076979953    17.279965393    21.451995670   0   0   0 # H_
    233     13   2  0.403000     1.573378530    16.408983923    21.910960348   0   0   0 # H_
    234     13   5 -0.512700     1.548964738    16.092297437    17.867163157   0   0   0 # O_2
    235     14   1 -0.203100     4.101159147    14.149480523    25.568273265   0   0   0 # C_3
    236     14   1  0.017300     3.273872015    14.713307818    24.258926107   0   0   0 # C_3
    237     14   2  0.170400     3.491757644    14.452622897    26.467249502   0   0   0 # H_
    238     14   2  0.132700     4.009178120    13.038922277    25.502941163   0   0   0 # H_
    239     14   1 -0.312700     3.694105755    16.179809929    23.971847256   0   0   0 # C_3
    240     14   4  0.323700     1.729320419    14.657069203    24.544654917   0   0   0 # C_2
    241     14   2  0.124800     4.257766148    16.250113209    23.029939159   0   0   0 # H_
    242     14   2  0.292300     4.355242004    16.599823043    24.768691627   0   0   0 # H_
    243     14   2  0.057700     2.818598755    16.864259065    23.950488129   0   0   0 # H_
    244     14   3 -0.863800     0.753321195    14.981642657    23.545346131   0   0   0 # O_R
    245     14   5 -0.473600     1.345086639    14.323004369    25.655093921   0   0   0 # O_2
    246     14   1  0.003000    -0.620970065    14.626611145    23.819821165   0   0   0 # C_3
    247     14   1 -0.170100    -1.496604586    15.867479739    23.593964300   0   0   0 # C_3
    248     14   2  0.186500    -0.784536689    14.254406980    24.864648678   0   0   0 # H_
    249     14   2  0.230300    -0.928019254    13.778636254    23.155623401   0   0   0 # H_
    250     14   1 -0.075100    -3.012838016    15.584130276    23.785161613   0   0   0 # C_3
    251     14   2  0.294600    -1.339647705    16.261928658    22.553592402   0   0   0 # H_
    252     14   2  0.199600    -1.134001256    16.627012784    24.331539017   0   0   0 # H_
    253     14   6  0.017400    -3.788753669    14.991431492    22.203775285   0   0   0 # S_R
    254     14   2  0.170300    -3.537609715    16.522373929    24.099095199   0   0   0 # H_
    255     14   2  0.121900    -3.175153488    14.818783377    24.581043799   0   0   0 # H_
    256     14   7  0.022700    -5.566951102    14.831130308    22.067711077   0   0   0 # N_2
    257     14   5 -0.153600    -3.375659776    15.876816301    21.004236698   0   0   0 # O_2
    258     14   5 -0.323200    -3.217644093    13.622769517    21.771413881   0   0   0 # O_2
    259     14   6  0.177800    -6.258416526    14.232415769    20.524497685   0   0   0 # S_R
    260     14   1  1.181300    -7.747062046    15.169323820    19.853986018   0   0   0 # C_3
    261     14   5 -0.188100    -5.070534214    14.179296951    19.526589470   0   0   0 # O_2
    262     14   5 -0.226700    -6.511086035    12.718259911    20.781045893   0   0   0 # O_2
    263     14   8 -0.551800    -7.320030879    16.479153410    19.646216967   0   0   0 # F_
    264     14   8 -0.539100    -8.793549602    15.187960087    20.773889515   0   0   0 # F_
    265     14   8 -0.513200    -8.207053865    14.609074180    18.663594982   0   0   0 # F_
    266     15   1 -0.266900     5.949718760    13.369857633    27.259593340   0   0   0 # C_3
    267     15   1 -0.125700     5.592087492    14.478640785    26.138347683   0   0   0 # C_3
    268     15   2  0.156400     5.985823242    12.372657742    26.745980908   0   0   0 # H_
    269     15   2  0.131200     5.050254517    13.338383020    27.917292332   0   0   0 # H_
    270     15   1  0.147300     6.745776870    14.624106766    25.077615417   0   0   0 # C_3
    271     15   2  0.145600     5.518539805    15.447140462    26.687229930   0   0   0 # H_
    272     15   3 -0.709700     6.264106126    14.913986613    23.786781761   0   0   0 # O_R
    273     15   1  0.146800     7.776810084    15.762169424    25.398177549   0   0   0 # C_3
    274     15   2  0.245900     7.245040132    13.654830884    24.973919213   0   0   0 # H_
    275     15   4  0.844600     6.925766820    16.045639620    23.361586155   0   0   0 # C_2
    276     15   3 -0.507200     7.791363774    16.620544735    24.259284840   0   0   0 # O_R
    277     15   2  0.310700     8.816497007    15.384383952    25.565694294   0   0   0 # H_
    278     15   2  0.085100     7.501540125    16.353870849    26.302358185   0   0   0 # H_