LAMMPS data file Created by LigParGen - (Written by Leela S. Dodda)

       6 atoms
       5 bonds
       5 angles
       4 dihedrals
       1 impropers
 
       6 atom types
       5 bond types
       5 angle types
       4 dihedral types
       1 improper types
 
   -0.973530    49.026470 xlo xhi
    1.000000    51.000000 ylo yhi
   -1.832960    48.167040 zlo zhi

Masses

       1     15.999  
       2     12.011  
       3     15.999  
       4     15.999  
       5      1.008  
       6      1.008  

Pair Coeffs 

       1      0.210  2.9600000 
       2      0.070  3.5500000 
       3      0.170  3.1200000 
       4      0.170  3.1200000 
       5      0.000  0.0000000 
       6      0.000  0.0000000 

Bond Coeffs 

       1   570.0000     1.2290 
       2   450.0000     1.3640 
       3   450.0000     1.3640 
       4   553.0000     0.9450 
       5   553.0000     0.9450 

Angle Coeffs 

       1     80.000    121.000
       2     80.000    121.000
       3     35.000    113.000
       4     35.000    113.000
       5     69.900    118.180

Dihedral Coeffs  

       1      0.000      5.500      0.000      0.000 
       2      0.000      5.500      0.000      0.000 
       3      0.000      5.500      0.000      0.000 
       4      0.000      5.500      0.000      0.000 

Improper Coeffs 

       1     10.500      -1       2 

Atoms 

     1      1      1 -0.52070000    1.000  1.00000  0.00000
     2      1      2 0.56970000   -0.213  1.00000  0.00000
     3      1      3 -0.49300000   -0.974  1.00000  1.09505
     4      1      4 -0.49300000   -0.974  1.00138 -1.09505
     5      1      5 0.46850000   -0.334  1.00000  1.83296
     6      1      6 0.46850000   -0.334  1.00232 -1.83296

Bonds 

     1      1      2      1
     2      2      3      2
     3      3      4      2
     4      4      5      3
     5      5      6      4

Angles 

     1      1      1      2      3
     2      2      1      2      4
     3      3      2      3      5
     4      4      2      4      6
     5      5      3      2      4

Dihedrals

     1      1      5      3      2      1 
     2      2      6      4      2      1 
     3      3      5      3      2      4 
     4      4      6      4      2      3 

Impropers

     1      1      2      1      3      4 
