LAMMPS data file Created by LigParGen - (Written by Leela S. Dodda)

      44 atoms
      43 bonds
      78 angles
      81 dihedrals
      24 impropers
 
      44 atom types
      43 bond types
      78 angle types
      81 dihedral types
      24 improper types
 
  -16.225070    33.774930 xlo xhi
   -4.988590    45.011410 ylo yhi
   -1.037160    48.962840 zlo zhi

Masses

       1     12.011  
       2     15.999  
       3     12.011  
       4     12.011  
       5     15.999  
       6     12.011  
       7     12.011  
       8     15.999  
       9     12.011  
      10     12.011  
      11     15.999  
      12     12.011  
      13     12.011  
      14     15.999  
      15     12.011  
      16     12.011  
      17     15.999  
      18     12.011  
      19      1.008  
      20      1.008  
      21      1.008  
      22      1.008  
      23      1.008  
      24      1.008  
      25      1.008  
      26      1.008  
      27      1.008  
      28      1.008  
      29      1.008  
      30      1.008  
      31      1.008  
      32      1.008  
      33      1.008  
      34      1.008  
      35      1.008  
      36      1.008  
      37      1.008  
      38      1.008  
      39      1.008  
      40      1.008  
      41      1.008  
      42      1.008  
      43      1.008  
      44      1.008  

Pair Coeffs 

       1      0.066  3.5000000 
       2      0.140  2.9000000 
       3      0.066  3.5000000 
       4      0.066  3.5000000 
       5      0.140  2.9000000 
       6      0.066  3.5000000 
       7      0.066  3.5000000 
       8      0.140  2.9000000 
       9      0.066  3.5000000 
      10      0.066  3.5000000 
      11      0.140  2.9000000 
      12      0.066  3.5000000 
      13      0.066  3.5000000 
      14      0.140  2.9000000 
      15      0.066  3.5000000 
      16      0.066  3.5000000 
      17      0.140  2.9000000 
      18      0.066  3.5000000 
      19      0.030  2.5000000 
      20      0.030  2.5000000 
      21      0.030  2.5000000 
      22      0.030  2.5000000 
      23      0.030  2.5000000 
      24      0.030  2.5000000 
      25      0.030  2.5000000 
      26      0.030  2.5000000 
      27      0.030  2.5000000 
      28      0.030  2.5000000 
      29      0.030  2.5000000 
      30      0.030  2.5000000 
      31      0.030  2.5000000 
      32      0.030  2.5000000 
      33      0.030  2.5000000 
      34      0.030  2.5000000 
      35      0.030  2.5000000 
      36      0.030  2.5000000 
      37      0.030  2.5000000 
      38      0.030  2.5000000 
      39      0.030  2.5000000 
      40      0.030  2.5000000 
      41      0.030  2.5000000 
      42      0.030  2.5000000 
      43      0.030  2.5000000 
      44      0.030  2.5000000 

Bond Coeffs 

       1   320.0000     1.4100 
       2   320.0000     1.4100 
       3   268.0000     1.5290 
       4   320.0000     1.4100 
       5   320.0000     1.4100 
       6   268.0000     1.5290 
       7   320.0000     1.4100 
       8   320.0000     1.4100 
       9   268.0000     1.5290 
      10   320.0000     1.4100 
      11   320.0000     1.4100 
      12   268.0000     1.5290 
      13   320.0000     1.4100 
      14   320.0000     1.4100 
      15   268.0000     1.5290 
      16   320.0000     1.4100 
      17   320.0000     1.4100 
      18   340.0000     1.0900 
      19   340.0000     1.0900 
      20   340.0000     1.0900 
      21   340.0000     1.0900 
      22   340.0000     1.0900 
      23   340.0000     1.0900 
      24   340.0000     1.0900 
      25   340.0000     1.0900 
      26   340.0000     1.0900 
      27   340.0000     1.0900 
      28   340.0000     1.0900 
      29   340.0000     1.0900 
      30   340.0000     1.0900 
      31   340.0000     1.0900 
      32   340.0000     1.0900 
      33   340.0000     1.0900 
      34   340.0000     1.0900 
      35   340.0000     1.0900 
      36   340.0000     1.0900 
      37   340.0000     1.0900 
      38   340.0000     1.0900 
      39   340.0000     1.0900 
      40   340.0000     1.0900 
      41   340.0000     1.0900 
      42   340.0000     1.0900 
      43   340.0000     1.0900 

Angle Coeffs 

       1     60.000    109.500
       2     50.000    109.500
       3     50.000    109.500
       4     60.000    109.500
       5     50.000    109.500
       6     50.000    109.500
       7     60.000    109.500
       8     50.000    109.500
       9     50.000    109.500
      10     60.000    109.500
      11     50.000    109.500
      12     50.000    109.500
      13     60.000    109.500
      14     50.000    109.500
      15     50.000    109.500
      16     60.000    109.500
      17     35.000    109.500
      18     35.000    109.500
      19     35.000    109.500
      20     35.000    109.500
      21     35.000    109.500
      22     37.500    110.700
      23     37.500    110.700
      24     35.000    109.500
      25     35.000    109.500
      26     37.500    110.700
      27     37.500    110.700
      28     35.000    109.500
      29     35.000    109.500
      30     37.500    110.700
      31     37.500    110.700
      32     35.000    109.500
      33     35.000    109.500
      34     37.500    110.700
      35     37.500    110.700
      36     35.000    109.500
      37     35.000    109.500
      38     37.500    110.700
      39     37.500    110.700
      40     35.000    109.500
      41     35.000    109.500
      42     35.000    109.500
      43     33.000    107.800
      44     35.000    109.500
      45     37.500    110.700
      46     35.000    109.500
      47     35.000    109.500
      48     33.000    107.800
      49     35.000    109.500
      50     33.000    107.800
      51     33.000    107.800
      52     35.000    109.500
      53     37.500    110.700
      54     37.500    110.700
      55     33.000    107.800
      56     33.000    107.800
      57     37.500    110.700
      58     37.500    110.700
      59     33.000    107.800
      60     35.000    109.500
      61     37.500    110.700
      62     37.500    110.700
      63     37.500    110.700
      64     33.000    107.800
      65     35.000    109.500
      66     35.000    109.500
      67     33.000    107.800
      68     33.000    107.800
      69     33.000    107.800
      70     35.000    109.500
      71     37.500    110.700
      72     33.000    107.800
      73     33.000    107.800
      74     33.000    107.800
      75     37.500    110.700
      76     35.000    109.500
      77     33.000    107.800
      78     33.000    107.800

Dihedral Coeffs  

       1      0.650     -0.250      0.670      0.000 
       2     -0.550      0.000      0.000      0.000 
       3      0.650     -0.250      0.670      0.000 
       4      0.650     -0.250      0.670      0.000 
       5     -0.550      0.000      0.000      0.000 
       6      0.650     -0.250      0.670      0.000 
       7      0.650     -0.250      0.670      0.000 
       8     -0.550      0.000      0.000      0.000 
       9      0.650     -0.250      0.670      0.000 
      10      0.650     -0.250      0.670      0.000 
      11     -0.550      0.000      0.000      0.000 
      12      0.650     -0.250      0.670      0.000 
      13      0.650     -0.250      0.670      0.000 
      14     -0.550      0.000      0.000      0.000 
      15      0.650     -0.250      0.670      0.000 
      16      0.000      0.000      0.760      0.000 
      17      0.000      0.000      0.760      0.000 
      18      0.000      0.000      0.468      0.000 
      19      0.000      0.000      0.468      0.000 
      20      0.000      0.000      0.300      0.000 
      21      0.000      0.000      0.300      0.000 
      22      0.000      0.000      0.760      0.000 
      23      0.000      0.000      0.760      0.000 
      24      0.000      0.000      0.760      0.000 
      25      0.000      0.000      0.300      0.000 
      26      0.000      0.000      0.300      0.000 
      27      0.000      0.000      0.760      0.000 
      28      0.000      0.000      0.760      0.000 
      29      0.000      0.000      0.760      0.000 
      30      0.000      0.000      0.468      0.000 
      31      0.000      0.000      0.300      0.000 
      32      0.000      0.000      0.468      0.000 
      33      0.000      0.000      0.468      0.000 
      34      0.000      0.000      0.760      0.000 
      35      0.000      0.000      0.468      0.000 
      36      0.000      0.000      0.468      0.000 
      37      0.000      0.000      0.468      0.000 
      38      0.000      0.000      0.760      0.000 
      39      0.000      0.000      0.300      0.000 
      40      0.000      0.000      0.300      0.000 
      41      0.000      0.000      0.760      0.000 
      42      0.000      0.000      0.300      0.000 
      43      0.000      0.000      0.760      0.000 
      44      0.000      0.000      0.468      0.000 
      45      0.000      0.000      0.468      0.000 
      46      0.000      0.000      0.300      0.000 
      47      0.000      0.000      0.760      0.000 
      48      0.000      0.000      0.760      0.000 
      49      0.000      0.000      0.468      0.000 
      50      0.000      0.000      0.760      0.000 
      51      0.000      0.000      0.760      0.000 
      52      0.000      0.000      0.468      0.000 
      53      0.000      0.000      0.300      0.000 
      54      0.000      0.000      0.760      0.000 
      55      0.000      0.000      0.760      0.000 
      56      0.000      0.000      0.468      0.000 
      57      0.000      0.000      0.468      0.000 
      58      0.000      0.000      0.760      0.000 
      59      0.000      0.000      0.468      0.000 
      60      0.000      0.000      0.760      0.000 
      61      0.000      0.000      0.300      0.000 
      62      0.000      0.000      0.300      0.000 
      63      0.000      0.000      0.468      0.000 
      64      0.000      0.000      0.468      0.000 
      65      0.000      0.000      0.468      0.000 
      66      0.000      0.000      0.300      0.000 
      67      0.000      0.000      0.760      0.000 
      68      0.000      0.000      0.468      0.000 
      69      0.000      0.000      0.300      0.000 
      70      0.000      0.000      0.300      0.000 
      71      0.000      0.000      0.760      0.000 
      72      0.000      0.000      0.300      0.000 
      73      0.000      0.000      0.300      0.000 
      74      0.000      0.000      0.300      0.000 
      75      0.000      0.000      0.760      0.000 
      76      0.000      0.000      0.760      0.000 
      77      0.000      0.000      0.760      0.000 
      78      0.000      0.000      0.300      0.000 
      79      0.000      0.000      0.300      0.000 
      80      0.000      0.000      0.760      0.000 
      81      0.000      0.000      0.468      0.000 

Improper Coeffs 

       1      0.000      -1       2 
       2      0.000      -1       2 
       3      0.000      -1       2 
       4      0.000      -1       2 
       5      0.000      -1       2 
       6      0.000      -1       2 
       7      0.000      -1       2 
       8      0.000      -1       2 
       9      0.000      -1       2 
      10      0.000      -1       2 
      11      0.000      -1       2 
      12      0.000      -1       2 
      13      0.000      -1       2 
      14      0.000      -1       2 
      15      0.000      -1       2 
      16      0.000      -1       2 
      17      0.000      -1       2 
      18      0.000      -1       2 
      19      0.000      -1       2 
      20      0.000      -1       2 
      21      0.000      -1       2 
      22      0.000      -1       2 
      23      0.000      -1       2 
      24      0.000      -1       2 

Atoms 

     1      1      1 -0.04880000    1.000  1.00000  0.00000
     2      1      2 -0.37930000   -0.422  1.00000  0.00000
     3      1      3 0.00150000   -0.940  1.00000  1.32881
     4      1      4 0.00840000   -2.462  0.99819  1.28168
     5      1      5 -0.38660000   -2.970  0.99991  2.61600
     6      1      6 0.00860000   -4.397  0.99998  2.62810
     7      1      7 0.00520000   -4.885  1.00366  4.07180
     8      1      8 -0.37600000   -6.308  1.06558  4.08417
     9      1      9 0.01070000   -6.830  0.96745  5.41307
    10      1     10 0.01080000   -8.355  0.94713  5.35245
    11      1     11 -0.37610000   -8.784 -0.27955  4.75233
    12      1     12 0.00520000  -10.199 -0.32010  4.59113
    13      1     13 0.00870000  -10.580 -1.58643  3.83401
    14      1     14 -0.38690000  -12.002 -1.65662  3.72688
    15      1     15 0.00850000  -12.413 -2.82918  3.02507
    16      1     16 0.00150000  -13.935 -2.85175  2.94309
    17      1     17 -0.37930000  -14.357 -4.02091  2.24471
    18      1     18 -0.04860000  -15.775 -4.07916  2.14480
    19      1     19 0.08390000    1.345  0.99869 -1.03716
    20      1     20 0.08390000    1.382  0.10284  0.49672
    21      1     21 0.08390000    1.382  1.89848  0.49449
    22      1     22 0.08830000   -0.587  1.88680  1.86910
    23      1     23 0.08830000   -0.585  0.11436  1.87002
    24      1     24 0.09150000   -2.817  0.11008  0.74440
    25      1     25 0.09150000   -2.818  1.88373  0.74132
    26      1     26 0.09250000   -4.778  0.11078  2.11092
    27      1     27 0.09250000   -4.778  1.88429  2.10359
    28      1     28 0.08750000   -4.471  1.86697  4.60555
    29      1     29 0.08750000   -4.537  0.09549  4.57879
    30      1     30 0.09250000   -6.493  1.83553  5.99069
    31      1     31 0.09250000   -6.462  0.04648  5.87924
    32      1     32 0.09260000   -8.716  1.78969  4.75158
    33      1     33 0.09260000   -8.767  1.01006  6.36547
    34      1     34 0.08750000  -10.547  0.55856  4.03437
    35      1     35 0.08750000  -10.684 -0.30961  5.57447
    36      1     36 0.09260000  -10.197 -2.46708  4.36315
    37      1     37 0.09260000  -10.128 -1.57068  2.83515
    38      1     38 0.09130000  -12.055 -3.72515  3.54677
    39      1     39 0.09130000  -11.985 -2.83311  2.01541
    40      1     40 0.08830000  -14.290 -1.95326  2.42385
    41      1     41 0.08830000  -14.359 -2.84373  3.95465
    42      1     42 0.08390000  -16.045 -4.98859  1.60279
    43      1     43 0.08390000  -16.153 -3.21556  1.59031
    44      1     44 0.08390000  -16.225 -4.11931  3.13997

Bonds 

     1      1      2      1
     2      2      3      2
     3      3      4      3
     4      4      5      4
     5      5      6      5
     6      6      7      6
     7      7      8      7
     8      8      9      8
     9      9     10      9
    10     10     11     10
    11     11     12     11
    12     12     13     12
    13     13     14     13
    14     14     15     14
    15     15     16     15
    16     16     17     16
    17     17     18     17
    18     18     19      1
    19     19     20      1
    20     20     21      1
    21     21     22      3
    22     22     23      3
    23     23     24      4
    24     24     25      4
    25     25     26      6
    26     26     27      6
    27     27     28      7
    28     28     29      7
    29     29     30      9
    30     30     31      9
    31     31     32     10
    32     32     33     10
    33     33     34     12
    34     34     35     12
    35     35     36     13
    36     36     37     13
    37     37     38     15
    38     38     39     15
    39     39     40     16
    40     40     41     16
    41     41     42     18
    42     42     43     18
    43     43     44     18

Angles 

     1      1      1      2      3
     2      2      2      3      4
     3      3      3      4      5
     4      4      4      5      6
     5      5      5      6      7
     6      6      6      7      8
     7      7      7      8      9
     8      8      8      9     10
     9      9      9     10     11
    10     10     10     11     12
    11     11     11     12     13
    12     12     12     13     14
    13     13     13     14     15
    14     14     14     15     16
    15     15     15     16     17
    16     16     16     17     18
    17     17      2      1     19
    18     18      2      1     20
    19     19      2      1     21
    20     20      2      3     22
    21     21      2      3     23
    22     22      3      4     24
    23     23      3      4     25
    24     24      5      6     26
    25     25      5      6     27
    26     26      6      7     28
    27     27      6      7     29
    28     28      8      9     30
    29     29      8      9     31
    30     30      9     10     32
    31     31      9     10     33
    32     32     11     12     34
    33     33     11     12     35
    34     34     12     13     36
    35     35     12     13     37
    36     36     14     15     38
    37     37     14     15     39
    38     38     15     16     40
    39     39     15     16     41
    40     40     17     18     42
    41     41     17     18     43
    42     42     17     18     44
    43     43     42     18     44
    44     44     11     10     33
    45     45     10      9     30
    46     46     17     16     40
    47     47     17     16     41
    48     48     20      1     21
    49     49     14     13     37
    50     50     30      9     31
    51     51     40     16     41
    52     52      5      4     24
    53     53      7      6     27
    54     54      4      3     23
    55     55     32     10     33
    56     56     24      4     25
    57     57      4      3     22
    58     58     13     12     34
    59     59     43     18     44
    60     60     11     10     32
    61     61     13     12     35
    62     62     16     15     39
    63     63      7      6     26
    64     64     26      6     27
    65     65      8      7     29
    66     66      8      7     28
    67     67     42     18     43
    68     68     38     15     39
    69     69     28      7     29
    70     70      5      4     25
    71     71     10      9     31
    72     72     34     12     35
    73     73     22      3     23
    74     74     19      1     21
    75     75     16     15     38
    76     76     14     13     36
    77     77     19      1     20
    78     78     36     13     37

Dihedrals

     1      1      4      3      2      1 
     2      2      5      4      3      2 
     3      3      6      5      4      3 
     4      4      7      6      5      4 
     5      5      8      7      6      5 
     6      6      9      8      7      6 
     7      7     10      9      8      7 
     8      8     11     10      9      8 
     9      9     12     11     10      9 
    10     10     13     12     11     10 
    11     11     14     13     12     11 
    12     12     15     14     13     12 
    13     13     16     15     14     13 
    14     14     17     16     15     14 
    15     15     18     17     16     15 
    16     16     19      1      2      3 
    17     17     42     18     17     16 
    18     18     28      7      6      5 
    19     19     41     16     15     14 
    20     20     24      4      3     23 
    21     21     25      4      3     22 
    22     22     27      6      5      4 
    23     23     33     10     11     12 
    24     24     29      7      8      9 
    25     25     40     16     15     38 
    26     26     33     10      9     31 
    27     27     28      7      8      9 
    28     28     20      1      2      3 
    29     29     34     12     11     10 
    30     30     32     10      9      8 
    31     31     33     10      9     30 
    32     32     26      6      7      8 
    33     33     33     10      9      8 
    34     34     26      6      5      4 
    35     35     27      6      7      8 
    36     36     31      9     10     11 
    37     37     35     12     13     14 
    38     38     40     16     17     18 
    39     39     37     13     12     34 
    40     40     41     16     15     39 
    41     41     22      3      2      1 
    42     42     37     13     12     35 
    43     43     24      4      5      6 
    44     44     29      7      6      5 
    45     45     39     15     16     17 
    46     46     32     10      9     31 
    47     47     32     10     11     12 
    48     48     38     15     14     13 
    49     49     30      9     10     11 
    50     50     31      9      8      7 
    51     51     41     16     17     18 
    52     52     24      4      3      2 
    53     53     28      7      6     26 
    54     54     35     12     11     10 
    55     55     25      4      5      6 
    56     56     25      4      3      2 
    57     57     22      3      4      5 
    58     58     36     13     14     15 
    59     59     23      3      4      5 
    60     60     30      9      8      7 
    61     61     40     16     15     39 
    62     62     41     16     15     38 
    63     63     40     16     15     14 
    64     64     34     12     13     14 
    65     65     37     13     12     11 
    66     66     24      4      3     22 
    67     67     21      1      2      3 
    68     68     36     13     12     11 
    69     69     25      4      3     23 
    70     70     36     13     12     34 
    71     71     23      3      2      1 
    72     72     29      7      6     27 
    73     73     32     10      9     30 
    74     74     36     13     12     35 
    75     75     44     18     17     16 
    76     76     43     18     17     16 
    77     77     39     15     14     13 
    78     78     28      7      6     27 
    79     79     29      7      6     26 
    80     80     37     13     14     15 
    81     81     38     15     16     17 

Impropers

     1      1      1      2     19     20 
     2      2      1      2     19     21 
     3      3      3      2      4     22 
     4      4      3      2      4     23 
     5      5      4      3      5     24 
     6      6      4     25      3      5 
     7      7      6     26      5      7 
     8      8      6     27      5      7 
     9      9      7     28      6      8 
    10     10      7     29      6      8 
    11     11      9     10     30      8 
    12     12      9     10     31      8 
    13     13     10      9     11     32 
    14     14     10     33     11      9 
    15     15     12     34     11     13 
    16     16     12     35     13     11 
    17     17     13     12     36     14 
    18     18     13     12     37     14 
    19     19     15     16     38     14 
    20     20     15     16     39     14 
    21     21     16     17     15     40 
    22     22     16     41     17     15 
    23     23     18     17     43     42 
    24     24     18     17     44     42 
