LAMMPS data file Created by LigParGen - (Written by Leela S. Dodda)

      16 atoms
      16 bonds
      29 angles
      37 dihedrals
       9 impropers
 
      16 atom types
      16 bond types
      29 angle types
      37 dihedral types
       9 improper types
 
   -1.789760    48.210240 xlo xhi
    0.088560    50.088560 ylo yhi
   -0.567390    49.432610 zlo zhi

Masses

       1      1.008  
       2     12.011  
       3     12.011  
       4      1.008  
       5      1.008  
       6     12.011  
       7      1.008  
       8      1.008  
       9     15.999  
      10     12.011  
      11      1.008  
      12     12.011  
      13     15.999  
      14      1.008  
      15      1.008  
      16     15.999  

Pair Coeffs 

       1      0.030  2.5000000 
       2      0.066  3.5000000 
       3      0.066  3.5000000 
       4      0.030  2.5000000 
       5      0.030  2.5000000 
       6      0.066  3.5000000 
       7      0.030  2.5000000 
       8      0.030  2.5000000 
       9      0.140  2.9000000 
      10      0.066  3.5000000 
      11      0.030  2.5000000 
      12      0.070  3.5500000 
      13      0.140  2.9000000 
      14      0.030  2.5000000 
      15      0.030  2.5000000 
      16      0.210  2.9600000 

Bond Coeffs 

       1   340.0000     1.0900 
       2   268.0000     1.5290 
       3   340.0000     1.0900 
       4   340.0000     1.0900 
       5   268.0000     1.5290 
       6   340.0000     1.0900 
       7   340.0000     1.0900 
       8   320.0000     1.4100 
       9   268.0000     1.5290 
      10   340.0000     1.0900 
      11   214.0000     1.3270 
      12   320.0000     1.4100 
      13   340.0000     1.0900 
      14   340.0000     1.0900 
      15   570.0000     1.2290 
      16   214.0000     1.3270 

Angle Coeffs 

       1     37.500    110.700
       2     33.000    107.800
       3     33.000    107.800
       4     58.350    112.700
       5     37.500    110.700
       6     37.500    110.700
       7     50.000    109.500
       8     58.350    112.700
       9     37.500    110.700
      10     83.000    116.900
      11     50.000    109.500
      12     37.500    110.700
      13     37.500    110.700
      14     83.000    123.400
      15     69.900    118.180
      16     37.500    110.700
      17     35.000    109.500
      18     37.500    110.700
      19     33.000    107.800
      20     83.000    123.400
      21     35.000    109.500
      22     37.500    110.700
      23     37.500    110.700
      24     50.000    109.500
      25     83.000    116.900
      26     33.000    107.800
      27     35.000    109.500
      28     37.500    110.700
      29     33.000    107.800

Dihedral Coeffs  

       1      0.000      0.000      0.300      0.000 
       2      1.711     -0.500      0.663      0.000 
       3     -1.220     -0.126      0.422      0.000 
       4      1.711     -0.500      0.663      0.000 
       5      4.669      5.124      0.000      0.000 
       6      0.000      0.000      0.300      0.000 
       7      0.000      5.124      0.000      0.000 
       8      0.000      0.000      0.300      0.000 
       9      0.000      0.000      0.300      0.000 
      10      1.300     -0.200      0.200      0.000 
      11      0.000      0.000      0.468      0.000 
      12      4.669      5.124      0.000      0.000 
      13      0.000      0.000      0.300      0.000 
      14      0.000      0.000      0.468      0.000 
      15      0.000      5.124      0.000      0.000 
      16      0.000      0.000      0.300      0.000 
      17      0.000      0.000      0.198      0.000 
      18     -1.220     -0.126      0.422      0.000 
      19      0.000      0.000      0.300      0.000 
      20     -0.550      0.000      0.000      0.000 
      21      0.000      0.000      0.300      0.000 
      22      0.000      0.000      0.300      0.000 
      23      0.000      0.000      0.198      0.000 
      24      0.000      0.000      0.468      0.000 
      25     -1.220     -0.126      0.422      0.000 
      26      0.000      0.000      0.300      0.000 
      27      0.000      0.000      0.300      0.000 
      28      0.000      0.000      0.468      0.000 
      29      0.000      0.000      0.300      0.000 
      30      0.000      0.000      0.300      0.000 
      31      0.000      0.000      0.198      0.000 
      32      0.000      0.000      0.300      0.000 
      33      0.000      0.000      0.300      0.000 
      34      0.000      0.000      0.300      0.000 
      35      0.000      0.000      0.300      0.000 
      36      0.000      0.000      0.468      0.000 
      37      0.000      0.000      0.300      0.000 

Improper Coeffs 

       1      0.000      -1       2 
       2      0.000      -1       2 
       3      0.000      -1       2 
       4      0.000      -1       2 
       5      0.000      -1       2 
       6      0.000      -1       2 
       7      0.000      -1       2 
       8      0.000      -1       2 
       9     10.500      -1       2 

Atoms 

     1      1      1 0.09100000    1.000  1.00000  0.00000
     2      1      2 -0.24150000   -0.112  1.00000  0.00000
     3      1      3 -0.20080000   -0.676  1.00000  1.43245
     4      1      4 0.09100000   -0.469  1.88835 -0.56739
     5      1      5 0.09100000   -0.450  0.08856 -0.54222
     6      1      6 0.01120000   -0.275  2.25387  2.21591
     7      1      7 0.11660000   -1.790  0.96299  1.39577
     8      1      8 0.11660000   -0.349  0.09290  1.99258
     9      1      9 -0.30080000   -1.015  2.27338  3.42477
    10      1     10 -0.04910000    1.214  2.26500  2.61749
    11      1     11 0.14150000   -0.526  3.16813  1.62554
    12      1     12 0.53900000   -0.073  2.31766  4.43921
    13      1     13 -0.29950000    1.251  2.32462  4.03625
    14      1     14 0.13320000    1.723  3.15825  2.19285
    15      1     15 0.13320000    1.751  1.35286  2.27576
    16      1     16 -0.37260000   -0.391  2.34725  5.61355

Bonds 

     1      1      2      1
     2      2      3      2
     3      3      4      2
     4      4      5      2
     5      5      6      3
     6      6      7      3
     7      7      8      3
     8      8      9      6
     9      9     10      6
    10     10     11      6
    11     11     12      9
    12     12     13     10
    13     13     14     10
    14     14     15     10
    15     15     16     12
    16     16     13     12

Angles 

     1      1      1      2      3
     2      2      1      2      4
     3      3      1      2      5
     4      4      2      3      6
     5      5      2      3      7
     6      6      2      3      8
     7      7      3      6      9
     8      8      3      6     10
     9      9      3      6     11
    10     10      6      9     12
    11     11      6     10     13
    12     12      6     10     14
    13     13      6     10     15
    14     14      9     12     16
    15     15      9     12     13
    16     16      6      3      8
    17     17     13     10     14
    18     18     10      6     11
    19     19      7      3      8
    20     20     13     12     16
    21     21     13     10     15
    22     22      3      2      4
    23     23      3      2      5
    24     24      9      6     10
    25     25     10     13     12
    26     26      4      2      5
    27     27      9      6     11
    28     28      6      3      7
    29     29     14     10     15

Dihedrals

     1      1      6      3      2      1 
     2      2      9      6      3      2 
     3      3     12      9      6      3 
     4      4     13     10      6      3 
     5      5     13     12      9      6 
     6      6      8      3      2      4 
     7      7     16     12      9      6 
     8      8     11      6      3      8 
     9      9      7      3      2      5 
    10     10     10      6      3      2 
    11     11     14     10      6      9 
    12     12     10     13     12      9 
    13     13      6      3      2      4 
    14     14      9      6      3      7 
    15     15     16     12     13     10 
    16     16      7      3      2      1 
    17     17     15     10     13     12 
    18     18     12      9      6     10 
    19     19     15     10      6     11 
    20     20     13     10      6      9 
    21     21     15     10      6      3 
    22     22     11      6      3      2 
    23     23     14     10     13     12 
    24     24     15     10      6      9 
    25     25     12     13     10      6 
    26     26      8      3      2      5 
    27     27     14     10      6      3 
    28     28      9      6      3      8 
    29     29     10      6      3      7 
    30     30      8      3      2      1 
    31     31     12      9      6     11 
    32     32     11      6      3      7 
    33     33     10      6      3      8 
    34     34      6      3      2      5 
    35     35      7      3      2      4 
    36     36     13     10      6     11 
    37     37     14     10      6     11 

Impropers

     1      1      2      1      3      4 
     2      2      2      1      3      5 
     3      3      3      2      6      7 
     4      4      3      2      6      8 
     5      5      6      9     10      3 
     6      6      6      9     11      3 
     7      7     10     13     14      6 
     8      8     10     13      6     15 
     9      9     12      9     13     16 
